     192
 i =        0, time =        0.000, E =     -1102.7787715053
  O         5.2230370000        5.3965480000        8.8924410000
  H         6.0546210000        4.8502760000        8.9721090000
  H         5.4669180000        6.0935430000        8.0669190000
  O         3.2727920000        3.0672160000        0.0859090000
  H         2.5992090000        3.6058960000       12.2861430000
  H         3.0617920000        2.6528290000        0.9394990000
  O         8.7686790000       12.2028770000        4.7749790000
  H         9.5888640000       11.6894420000        4.4068700000
  H         9.2532210000        0.4953220000        5.2814150000
  O         3.7611320000        7.9096520000        8.5446110000
  H         3.0389810000        8.0089460000        9.2690280000
  H         4.1927500000        7.0392540000        8.7526940000
  O         5.0579650000        0.4231740000        8.3960830000
  H         4.8425030000       12.1159530000        9.0184310000
  H         4.6451620000        1.1515140000        8.8722370000
  O         8.3180970000        6.1895290000        1.8570120000
  H         8.6054960000        6.7883160000        1.1023420000
  H         7.5742530000        5.6516420000        1.4555920000
  O         3.5429130000        2.5369360000        8.2575200000
  H         3.8870990000        3.1049870000        7.5710970000
  H         3.0140280000        3.2864300000        8.7093000000
  O         0.1711980000        1.1675220000        7.3393490000
  H        12.2754570000        1.2127450000        8.2676870000
  H         0.8754870000        0.4897340000        7.3653270000
  O         2.6437300000        0.8511400000       11.1783160000
  H         2.5989530000        1.7714430000       11.6505860000
  H         3.5232590000        0.8334330000       10.6329620000
  O         9.8035320000        4.2030960000        7.3860920000
  H         9.7011830000        5.1847810000        7.1536940000
  H        10.7980000000        3.9209030000        7.3198590000
  O         1.3585760000       10.3300180000       11.7577730000
  H         1.8755200000       11.0898130000       11.6133520000
  H         1.3327050000       10.1100390000        0.2829780000
  O         8.8699910000        9.2371600000        5.8551560000
  H         9.2026150000        9.6850870000        5.0276400000
  H         9.4008180000        8.3541680000        5.9832940000
  O         4.9965330000        6.9519500000        4.3939410000
  H         4.5488860000        6.3362090000        3.6916480000
  H         5.6325620000        6.3148940000        4.9856630000
  O         8.2785310000        2.7288230000       10.9547920000
  H         7.5132620000        2.2343960000       11.2486980000
  H         7.9755510000        3.5330410000       10.3756860000
  O         1.9957860000       10.1728410000        1.9461990000
  H         2.6457190000       10.9227910000        2.2383460000
  H         2.6457250000        9.5796450000        1.4756500000
  O        10.2842160000        6.7773390000       11.8369370000
  H        10.9757580000        6.8696760000        0.1387240000
  H        10.5061430000        7.6193590000       11.3151790000
  O         4.0809270000       10.5579240000        9.6726280000
  H         4.8728670000       10.3912300000       10.2695970000
  H         4.2684040000        9.7712830000        8.9761730000
  O        10.0742530000        3.9931100000       12.3862840000
  H         9.9269750000        4.9826540000        0.0586310000
  H         9.5273630000        3.3906790000       11.8527790000
  O         6.1226240000        5.5903120000        6.4814720000
  H         5.7228240000        5.7985110000        7.4459110000
  H         7.0711700000        5.3707870000        6.4160180000
  O         0.8533640000        9.7148480000        4.9258470000
  H         1.1651180000       10.5780860000        4.5562560000
  H         1.6306960000        9.1105130000        5.0644090000
  O         8.3056230000        5.0466670000        9.3825010000
  H         8.8735040000        5.2935340000       10.1416780000
  H         8.9250630000        4.6924960000        8.7183130000
  O         1.5599830000        8.3508890000        9.9862110000
  H         1.2002760000        8.9047190000        9.3179280000
  H         1.6993600000        9.1295970000       10.5823580000
  O         0.6257620000       10.0845010000        7.5155760000
  H         0.7116570000        9.7920300000        6.6183000000
  H        12.0936990000        9.9503870000        7.8049140000
  O         1.5534300000        1.8139820000        2.1417030000
  H         1.2878290000        0.8057610000        1.8911280000
  H         0.6875470000        2.3281900000        2.1114890000
  O         6.1138070000        9.1202390000       11.3752100000
  H         6.8368710000        9.4508470000       11.9478900000
  H         6.6343760000        9.3138020000       10.5194530000
  O         8.2223050000        2.6229420000        2.0340500000
  H         8.8001560000        3.1090270000        2.6154910000
  H         8.3601040000        3.1653410000        1.2013490000
  O         0.0706300000        7.0328920000        3.5368660000
  H         0.3894540000        6.6904430000        4.3918760000
  H        12.4050540000        7.9619050000        3.6806900000
  O         6.5168750000        2.9621710000        4.3372990000
  H         7.0258910000        2.6009450000        3.5432650000
  H         6.1247000000        2.1487260000        4.6681360000
  O        11.8101220000        5.8106820000        9.7330990000
  H        11.4938900000        6.0419230000       10.7051530000
  H         0.2368450000        6.3316840000        9.7247040000
  O         7.0929980000       11.3268640000        7.7144170000
  H         6.6591660000       10.8273950000        6.9621320000
  H         6.4012410000       12.0001280000        8.0581260000
  O         0.1967790000        7.1081740000        0.8904790000
  H         0.1501520000        6.7962450000        1.7734090000
  H         1.0598810000        7.1748970000        0.4629620000
  O         0.3426300000        6.3826230000        6.3396440000
  H         1.2121390000        6.7300670000        6.5096840000
  H         0.2247700000        5.4931150000        6.7892670000
  O         2.5100130000        7.8182320000        6.0662550000
  H         3.2644120000        7.3336160000        5.5981100000
  H         2.8389060000        8.0044050000        7.0660600000
  O         9.5691600000        6.5535530000        4.2948400000
  H        10.4088840000        6.9383740000        3.8958640000
  H         9.0032280000        6.5494180000        3.4912850000
  O         5.1140420000        6.2364620000       11.4344590000
  H         5.7241250000        6.9555070000       11.4691530000
  H         5.1602080000        5.8420340000       10.5099370000
  O         0.6574520000        3.5249210000       11.6356110000
  H        12.2944640000        4.0433120000       11.5289100000
  H         0.2928290000        2.8059430000       11.0768230000
  O         7.3273700000        8.6272070000        8.5712420000
  H         7.2266450000        8.1448780000        7.6706540000
  H         7.3715740000        9.5720770000        8.3462880000
  O        10.4280790000        9.7408010000        3.7653350000
  H        11.4030430000        9.9025880000        4.0303020000
  H        10.0943960000       10.4541830000        3.1593240000
  O         6.1445590000        9.8892420000        5.7034380000
  H         7.2157720000        9.7794730000        5.5856360000
  H         5.8505920000        8.8966740000        5.6304390000
  O         9.9152130000        3.8666550000        4.2573180000
  H         9.7199290000        4.0887500000        5.2022180000
  H         9.9037140000        4.7065850000        3.8177890000
  O        10.2681340000        7.2163810000        7.0953860000
  H        10.6714950000        7.5554370000        7.9669240000
  H        11.1925770000        6.8570950000        6.7779350000
  O         2.6587510000        4.8188430000        9.4452640000
  H         2.7100030000        4.6779910000       10.3847730000
  H         3.6384620000        5.0681800000        9.2298930000
  O        11.8049460000        3.4063230000        2.0368740000
  H        11.1105860000        3.5619440000        1.4088630000
  H        11.3733170000        3.4736350000        2.9148710000
  O         2.6766940000       11.6350810000        7.3474630000
  H         2.9254990000       11.1871570000        8.1856360000
  H         1.8938870000       11.1406510000        7.0161030000
  O         8.3758510000       12.3786160000        1.5902800000
  H         8.0112000000       12.0637510000        2.5348340000
  H         9.0635810000        0.6361660000        1.8592040000
  O         3.7473680000        4.0559320000        5.6382890000
  H         4.5597370000        4.4795020000        5.9175680000
  H         3.0112490000        4.4994850000        6.1506890000
  O         5.6571710000       11.6515170000        3.5511580000
  H         5.8804320000       11.1167480000        4.3669890000
  H         4.8986890000       12.1854890000        3.8073350000
  O         4.1747950000        5.5244700000        2.3185090000
  H         4.7557960000        4.8518170000        1.7863920000
  H         3.4401870000        5.0674000000        2.7408340000
  O        11.6420060000        0.3802550000        1.1453740000
  H        11.4391320000       12.1533700000        0.4271930000
  H        11.7721250000        1.1295200000        0.5589690000
  O         6.2888630000       12.3862010000       10.6975550000
  H         6.2723180000        0.4793820000       11.6077050000
  H         6.6547200000        0.7305230000       10.1695290000
  O         9.7215290000       10.5084060000        8.1619090000
  H         8.8658170000       10.9646700000        8.0950490000
  H         9.7177030000       10.1398610000        7.2944440000
  O         8.5798840000       11.0704930000       11.6995430000
  H         8.4665720000       11.6045460000        0.1394910000
  H         8.0189130000       11.3270460000       11.0005700000
  O         2.1307620000       12.2572660000        4.1150210000
  H         2.7991540000        0.3122220000        4.7240330000
  H         1.6744240000        0.5443260000        3.7667230000
  O        11.3267260000       11.2622620000       11.1724070000
  H        11.9135550000       10.4803220000       11.4369020000
  H        10.3390350000       11.0344070000       11.3360980000
  O         0.1413140000        1.0481260000       10.0312010000
  H        11.9737880000        0.2293190000       10.1609220000
  H         0.9645120000        0.7813100000       10.4919590000
  O        10.9415110000        1.1608230000        5.1945970000
  H        11.4710490000        1.3120600000        6.0306170000
  H        10.5601230000        1.9274940000        4.8184800000
  O        10.3425120000        8.4561940000        9.4941400000
  H         9.4276490000        8.1131820000        9.4004280000
  H        10.1860890000        9.3566210000        9.1008350000
  O         0.3743690000        4.1066350000        7.8412510000
  H         0.4671570000        3.1864580000        7.6930920000
  H         0.5434170000        4.3056990000        8.7598300000
  O         3.2967110000        7.8774890000        0.8562920000
  H         3.2670190000        7.3832090000        1.6823000000
  H         3.6395340000        7.2126650000        0.1992630000
  O         6.6216180000        4.6837550000        0.2110790000
  H         5.9113290000        5.3165310000        0.0178390000
  H         6.7802480000        4.3233690000       11.7411260000
  O         4.1899640000        1.2889400000        5.4905120000
  H         4.0207940000        1.0416950000        6.4239560000
  H         3.8843260000        2.2240920000        5.4545140000
  O         5.7844140000        1.1156290000        1.2988560000
  H         6.5110280000        1.6246880000        1.6034860000
  H         5.6651560000        0.2813290000        1.8760480000
  O         5.4484150000        2.8426700000       10.5583910000
  H         4.7557230000        2.9229210000       11.2828680000
  H         5.0890120000        3.3495800000        9.8053620000
  O         6.4014530000        8.3683060000        1.8765540000
  H         5.4448330000        8.3784680000        1.7580260000
  H         6.4894890000        7.8845550000        2.7277950000
     192
 i =        1, time =        0.100, E =     -1102.7816973794
  O         5.2232429111        5.3963410717        8.8922026613
  H         6.0539470354        4.8491635848        8.9704611832
  H         5.4701869359        6.0911679946        8.0686031429
  O         3.2735707837        3.0668556589        0.0860007602
  H         2.6000651436        3.6048536049       12.2884727189
  H         3.0617848151        2.6516459214        0.9410233622
  O         8.7680109167       12.2023444811        4.7746248291
  H         9.5868220741       11.6911460809        4.4053762175
  H         9.2528719735        0.4987448525        5.2803257079
  O         3.7609200631        7.9103216410        8.5442958823
  H         3.0402245188        8.0083994184        9.2711740703
  H         4.1927325028        7.0399671228        8.7506932451
  O         5.0576311996        0.4230388205        8.3964438981
  H         4.8422663201       12.1189854218        9.0185314124
  H         4.6484859162        1.1525951357        8.8727706755
  O         8.3180299524        6.1888714702        1.8574573033
  H         8.6049154667        6.7889968695        1.1030701147
  H         7.5752653869        5.6517087398        1.4552816672
  O         3.5425949253        2.5372910936        8.2577039336
  H         3.8881322399        3.1047907578        7.5746017171
  H         3.0120997415        3.2864057185        8.7086054872
  O         0.1717941397        1.1675007381        7.3390757947
  H        12.2707248174        1.2123020655        8.2680047265
  H         0.8736776243        0.4911123147        7.3642780478
  O         2.6443368595        0.8515367283       11.1788419827
  H         2.5998770840        1.7687745622       11.6514006944
  H         3.5237416368        0.8335510358       10.6331098053
  O         9.8027857766        4.2029649030        7.3863180228
  H         9.6990532012        5.1848142233        7.1530719565
  H        10.7977463721        3.9231479374        7.3214880496
  O         1.3582448059       10.3302315591       11.7581718024
  H         1.8790716658       11.0918495811       11.6154305952
  H         1.3332988464       10.1084637538        0.2817918760
  O         8.8707679306        9.2374264540        5.8548367456
  H         9.2004981101        9.6831798237        5.0279649569
  H         9.3978293300        8.3556447149        5.9825180085
  O         4.9963006518        6.9526710323        4.3941374749
  H         4.5489820353        6.3357354818        3.6916356266
  H         5.6299102256        6.3148875621        4.9858197471
  O         8.2785774497        2.7288455770       10.9540675189
  H         7.5123429559        2.2325605756       11.2477658679
  H         7.9746177278        3.5321534742       10.3750372543
  O         1.9958741856       10.1725364866        1.9461238411
  H         2.6427994027       10.9198945198        2.2382098807
  H         2.6452273606        9.5787550076        1.4740080346
  O        10.2844450511        6.7774145825       11.8360231304
  H        10.9765589041        6.8721667100        0.1387072442
  H        10.5034643199        7.6188712028       11.3145388304
  O         4.0811721772       10.5576648053        9.6727250854
  H         4.8737839643       10.3911341281       10.2695131032
  H         4.2703022381        9.7696295511        8.9782218861
  O        10.0744522686        3.9939725862       12.3866832560
  H         9.9270451930        4.9827564913        0.0589699410
  H         9.5246438710        3.3902004993       11.8498472126
  O         6.1222298728        5.5898684634        6.4813428184
  H         5.7251402203        5.7979466573        7.4445470542
  H         7.0742329367        5.3699748332        6.4183415752
  O         0.8534235546        9.7147536130        4.9264011444
  H         1.1656656626       10.5772859170        4.5556189377
  H         1.6298295944        9.1116961826        5.0662435232
  O         8.3057939717        5.0461594852        9.3825220814
  H         8.8731657334        5.2938332096       10.1410170819
  H         8.9268033100        4.6910649964        8.7196329274
  O         1.5595491933        8.3512412861        9.9855870678
  H         1.2003945261        8.9032893742        9.3200680599
  H         1.6980865306        9.1308628100       10.5845602416
  O         0.6262513692       10.0847671518        7.5162345064
  H         0.7124883051        9.7923803204        6.6185003484
  H        12.0954411627        9.9508928805        7.8008831707
  O         1.5537051098        1.8143364723        2.1426198221
  H         1.2876833419        0.8043116124        1.8902541949
  H         0.6885917544        2.3251375623        2.1125924116
  O         6.1134960031        9.1208054154       11.3748193111
  H         6.8353698668        9.4497852670       11.9471174266
  H         6.6329426068        9.3105955085       10.5188438395
  O         8.2218499135        2.6222678874        2.0347905820
  H         8.7991340760        3.1091641050        2.6130486539
  H         8.3606970453        3.1647544900        1.1993586886
  O         0.0706706802        7.0337213984        3.5365877785
  H         0.3885469776        6.6918676895        4.3951856341
  H        12.4017197017        7.9626569741        3.6789822361
  O         6.5167757097        2.9613779864        4.3372349514
  H         7.0247772199        2.6029546886        3.5447467017
  H         6.1228916761        2.1479872552        4.6672394947
  O        11.8099165278        5.8108489510        9.7334776044
  H        11.4936551440        6.0445654202       10.7047597008
  H         0.2382107259        6.3302934606        9.7257068478
  O         7.0936796927       11.3272998025        7.7139251576
  H         6.6586751801       10.8283872112        6.9616927481
  H         6.4001159379       12.0000197979        8.0562656013
  O         0.1969397309        7.1082020940        0.8904578753
  H         0.1495369163        6.7962362752        1.7701440532
  H         1.0592860536        7.1759903110        0.4613530703
  O         0.3421362647        6.3826668584        6.3401684912
  H         1.2128036973        6.7304774696        6.5093016831
  H         0.2261072966        5.4939421142        6.7867263888
  O         2.5101474292        7.8184919207        6.0658395847
  H         3.2642356977        7.3346629746        5.5981075159
  H         2.8388492315        8.0027542656        7.0662530792
  O         9.5686528988        6.5531467246        4.2946092188
  H        10.4106716370        6.9369752162        3.8952341198
  H         9.0036133035        6.5475147605        3.4906207365
  O         5.1141688806        6.2362577088       11.4343715559
  H         5.7288494715        6.9571907453       11.4691865755
  H         5.1572916275        5.8429357079       10.5124799250
  O         0.6578375065        3.5239949867       11.6361589413
  H        12.2916509967        4.0450923077       11.5286341255
  H         0.2925463096        2.8059398671       11.0781461176
  O         7.3278435760        8.6269605834        8.5716782742
  H         7.2284648864        8.1426582966        7.6698791972
  H         7.3739463374        9.5744216950        8.3475605949
  O        10.4268711160        9.7404717565        3.7652812342
  H        11.4035960027        9.9021855094        4.0319101062
  H        10.0905821331       10.4559988062        3.1556220511
  O         6.1448725649        9.8891116126        5.7027824176
  H         7.2156318166        9.7776849333        5.5850437279
  H         5.8517987760        8.8982019775        5.6308414213
  O         9.9151557263        3.8669011745        4.2565537015
  H         9.7223141147        4.0871842152        5.2027089570
  H         9.9043688637        4.7057724847        3.8188243669
  O        10.2680563469        7.2159134004        7.0955298316
  H        10.6716081629        7.5537597788        7.9665669317
  H        11.1932480171        6.8601918456        6.7767166884
  O         2.6583640177        4.8189161921        9.4449562915
  H         2.7119409676        4.6771514775       10.3868173601
  H         3.6366715218        5.0657010932        9.2279892083
  O        11.8051126141        3.4061494200        2.0369241757
  H        11.1123550779        3.5594313209        1.4069713609
  H        11.3724736332        3.4716487671        2.9160180015
  O         2.6761912270       11.6356553395        7.3474858745
  H         2.9252683509       11.1865500614        8.1855479022
  H         1.8972233504       11.1424392967        7.0142892428
  O         8.3756703717       12.3790126952        1.5906536195
  H         8.0107908589       12.0641223388        2.5343702392
  H         9.0618289852        0.6352008561        1.8607700645
  O         3.7472353206        4.0561652695        5.6382294927
  H         4.5606839252        4.4821314597        5.9177999162
  H         3.0110517974        4.4998699228        6.1510988534
  O         5.6578390701       11.6517692297        3.5514788827
  H         5.8814163205       11.1171026151        4.3705135082
  H         4.8982238682       12.1862345647        3.8065295698
  O         4.1754835483        5.5246552755        2.3184777728
  H         4.7569109464        4.8515584823        1.7845459247
  H         3.4375284901        5.0664389070        2.7396348803
  O        11.6415984347        0.3802486081        1.1451711646
  H        11.4391499364       12.1535901622        0.4277706485
  H        11.7693705180        1.1282500417        0.5577250239
  O         6.2890774014       12.3859922523       10.6979397785
  H         6.2724513946        0.4782065973       11.6073348559
  H         6.6562658230        0.7331576299       10.1659602416
  O         9.7219384211       10.5086614755        8.1619571130
  H         8.8649021894       10.9630186865        8.0945903233
  H         9.7156721404       10.1374025412        7.2934400290
  O         8.5796204404       11.0699358183       11.7002377954
  H         8.4656756306       11.6010151267        0.1416898337
  H         8.0188257279       11.3294742655       10.9991399089
  O         2.1304361333       12.2566436826        4.1149734874
  H         2.7991754113        0.3078471639        4.7234730800
  H         1.6751959949        0.5427168373        3.7669055778
  O        11.3276970553       11.2622427487       11.1727351444
  H        11.9124400656       10.4818926194       11.4387769040
  H        10.3390598325       11.0356943931       11.3346853429
  O         0.1408133566        1.0484941662       10.0313909029
  H        11.9715169168        0.2290424106       10.1590926937
  H         0.9624053569        0.7794567417       10.4895022088
  O        10.9419690484        1.1607715944        5.1945347816
  H        11.4712223442        1.3118389339        6.0308898322
  H        10.5592501788        1.9278427431        4.8164556657
  O        10.3419850010        8.4558436943        9.4940945202
  H         9.4283165741        8.1122586212        9.3985070392
  H        10.1835082455        9.3567308013        9.1029001822
  O         0.3741059126        4.1077819935        7.8411550817
  H         0.4667875310        3.1855230158        7.6947505081
  H         0.5456662913        4.3072044202        8.7580958247
  O         3.2962270621        7.8767622442        0.8561909873
  H         3.2704256963        7.3836552904        1.6845497523
  H         3.6396789287        7.2144697305        0.1993751079
  O         6.6212562769        4.6840667858        0.2105923360
  H         5.9104302009        5.3178955778        0.0182711598
  H         6.7789770337        4.3245768874       11.7399854507
  O         4.1904196263        1.2889003395        5.4903369929
  H         4.0213170688        1.0418588685        6.4233797828
  H         3.8815025519        2.2228016879        5.4537381187
  O         5.7845508858        1.1157658283        1.2986031252
  H         6.5095236377        1.6267598480        1.6041334861
  H         5.6717597555        0.2797308496        1.8756541871
  O         5.4489695504        2.8423315466       10.5589141214
  H         4.7577368045        2.9239387547       11.2834247723
  H         5.0885231224        3.3499612438        9.8072406205
  O         6.4019771597        8.3688509542        1.8759893579
  H         5.4442244692        8.3803406702        1.7580474923
  H         6.4877293542        7.8849125775        2.7286999999
     192
 i =        2, time =        0.200, E =     -1102.7858293228
  O         5.2234538089        5.3961386038        8.8919565986
  H         6.0532821190        4.8480895654        8.9688188400
  H         5.4731917739        6.0889714538        8.0711365955
  O         3.2743782538        3.0664791971        0.0860969873
  H         2.6004826189        3.6041154341       12.2907155016
  H         3.0617390061        2.6504350630        0.9425949022
  O         8.7673529331       12.2018051794        4.7742666149
  H         9.5846074393       11.6929832009        4.4039908463
  H         9.2525068954        0.5020964236        5.2791941775
  O         3.7607081513        7.9109863535        8.5439828474
  H         3.0414603925        8.0078562468        9.2732860460
  H         4.1926393948        7.0408190381        8.7486982190
  O         5.0572978627        0.4229008587        8.3968036197
  H         4.8420079962       12.1219486442        9.0186168504
  H         4.6518030054        1.1537761857        8.8732746174
  O         8.3179635217        6.1882159826        1.8578949425
  H         8.6042888828        6.7896085195        1.1038979174
  H         7.5763489084        5.6518078719        1.4549832112
  O         3.5422705551        2.5376558556        8.2578971602
  H         3.8892362337        3.1045931297        7.5779717200
  H         3.0101861150        3.2862490895        8.7079080914
  O         0.1723875433        1.1674830330        7.3388018542
  H        12.2660300209        1.2118288016        8.2683468479
  H         0.8718993292        0.4924893383        7.3632331543
  O         2.6449523187        0.8519361690       11.1793636687
  H         2.6008722861        1.7659506750       11.6521428799
  H         3.5240162858        0.8336847388       10.6334000247
  O         9.8020444135        4.2028366367        7.3865373823
  H         9.6970371108        5.1847667247        7.1524691370
  H        10.7973177322        3.9255094141        7.3231664906
  O         1.3579043820       10.3304330980       11.7585645135
  H         1.8827457186       11.0940749640       11.6175115363
  H         1.3339282000       10.1069330722        0.2806836717
  O         8.8715456008        9.2376895644        5.8545186417
  H         9.1984190615        9.6811954424        5.0283383540
  H         9.3947673614        8.3572423565        5.9817184750
  O         4.9960722415        6.9533789113        4.3943406928
  H         4.5492166591        6.3353464528        3.6917186036
  H         5.6270543141        6.3150585762        4.9857931553
  O         8.2786260358        2.7288768247       10.9533346482
  H         7.5113689780        2.2307248547       11.2468448359
  H         7.9737336955        3.5311051460       10.3744578602
  O         1.9959759145       10.1722382028        1.9460496309
  H         2.6397223962       10.9168769560        2.2380502155
  H         2.6446787103        9.5778721409        1.4724091051
  O        10.2846783522        6.7774987397       11.8351113737
  H        10.9773574297        6.8746468470        0.1386640985
  H        10.5007135085        7.6183066198       11.3139008432
  O         4.0814265279       10.5573904313        9.6728141522
  H         4.8746062348       10.3910677267       10.2694236063
  H         4.2721394617        9.7681709700        8.9804457207
  O        10.0746619634        3.9948411874       12.3870916981
  H         9.9270540153        4.9827071955        0.0592233709
  H         9.5218355992        3.3897762185       11.8468686609
  O         6.1218301931        5.5894273135        6.4812129392
  H         5.7278859506        5.7970026595        7.4423180573
  H         7.0773013108        5.3691668567        6.4207378296
  O         0.8534810264        9.7146579802        4.9269538608
  H         1.1662616107       10.5764767388        4.5549868244
  H         1.6289551681        9.1129104915        5.0680547963
  O         8.3059573176        5.0456535910        9.3825491230
  H         8.8728237932        5.2941626910       10.1403335570
  H         8.9286191499        4.6895727299        8.7209037210
  O         1.5591230759        8.3515901544        9.9849706652
  H         1.2003923323        8.9019261825        9.3219591827
  H         1.6968375177        9.1321031478       10.5868929016
  O         0.6267315625       10.0850329919        7.5169124389
  H         0.7132721237        9.7926658794        6.6185056392
  H        12.0972918199        9.9514381588        7.7967918492
  O         1.5539784450        1.8146741986        2.1435339578
  H         1.2875782814        0.8031853268        1.8894267339
  H         0.6896648574        2.3220538491        2.1136743036
  O         6.1131951433        9.1213736555       11.3744170247
  H         6.8338442492        9.4487263463       11.9464281502