#     Step Nr.          Time[fs]        Kin.[a.u.]          Temp[K]            Pot.[a.u.]        Cons Qty[a.u.]        UsedTime[s]
         0            0.000000         0.299406557       330.000000000     -1102.778771505     -1102.478842424         0.000000000
         1            0.100000         0.302327065       333.218926448     -1102.781697379     -1102.478845277        17.186020491
         2            0.200000         0.306451780       337.765106548     -1102.785829323     -1102.478849962         9.866499985
         3            0.300000         0.311705673       343.555843393     -1102.791092106     -1102.478856271         8.915835171
         4            0.400000         0.317986936       350.478927939     -1102.797383741     -1102.478864012         8.905901943
         5            0.500000         0.325170699       358.396729100     -1102.804579114     -1102.478872936         7.872123898
