 DBCSR| CPU Multiplication driver                                           XSMM
 DBCSR| Multrec recursion limit                                              512
 DBCSR| Multiplication stack size                                           1000
 DBCSR| Maximum elements for images                                    UNLIMITED
 DBCSR| Multiplicative factor virtual images                                   1
 DBCSR| Use multiplication densification                                       T
 DBCSR| Multiplication size stacks                                             3
 DBCSR| Use memory pool for CPU allocation                                     F
 DBCSR| Number of 3D layers                                               SINGLE
 DBCSR| Use MPI memory allocation                                              F
 DBCSR| Use RMA algorithm                                                      F
 DBCSR| Use Communication thread                                               T
 DBCSR| Communication thread load                                             87
 DBCSR| MPI: My node id                                                        0
 DBCSR| MPI: Number of nodes                                                  28
 DBCSR| OMP: Current number of threads                                         1
 DBCSR| OMP: Max number of threads                                             1
 DBCSR| Split modifier for TAS multiplication algorithm                  1.0E+00


  **** **** ******  **  PROGRAM STARTED AT               2024-06-25 10:11:45.853
 ***** ** ***  *** **   PROGRAM STARTED ON                                   m02
 **    ****   ******    PROGRAM STARTED BY                                   qji
 ***** **    ** ** **   PROGRAM PROCESS ID                                 48132
  **** **  *******  **  PROGRAM STARTED IN /home/qji/workspace/jiqun/work/ML-pot
                                           ential/CsPbI3/cp2k-plumed/test_2023.1
                                           2.19/xrd-test/LDA/2024.5.17/head_400_
                                           hlda/5test_100-110_2DCV/data-deepmd/c
                                           p2k-data

 CP2K| version string:                                          CP2K version 9.1
 CP2K| source code revision number:                                  git:d8d7100
 CP2K| cp2kflags: omp libint fftw3 libxc pexsi elpa parallel mpi3 scalapack xsmm
 CP2K|             max_contr=7 plumed2 spglib mkl
 CP2K| is freely available from                            https://www.cp2k.org/
 CP2K| Program compiled at                           Mon Jul 4 00:46:42 CST 2022
 CP2K| Program compiled on                                                 admin
 CP2K| Program compiled for                                                 avx2
 CP2K| Data directory path    /public/software/applications/cp2k/9.1/intel-2022.
 CP2K| Input file name                                                    md.inp
 
 GLOBAL| Force Environment number                                              1
 GLOBAL| Basis set file name                                        BASIS_MOLOPT
 GLOBAL| Potential file name                                           POTENTIAL
 GLOBAL| MM Potential file name                                     MM_POTENTIAL
 GLOBAL| Coordinate file name                                            inp.xyz
 GLOBAL| Method name                                                        CP2K
 GLOBAL| Project name                                                       SbCl
 GLOBAL| Run type                                                             MD
 GLOBAL| FFT library                                                       FFTW3
 GLOBAL| Diagonalization library                                            ELPA
 GLOBAL| Minimum number of eigenvectors for ELPA usage                        16
 GLOBAL| Orthonormality check for eigenvectors                          DISABLED
 GLOBAL| Matrix multiplication library                                 ScaLAPACK
 GLOBAL| All-to-all communication in single precision                          F
 GLOBAL| FFTs using library dependent lengths                                  F
 GLOBAL| Grid backend                                                       AUTO
 GLOBAL| Global print level                                               MEDIUM
 GLOBAL| MPI I/O enabled                                                       T
 GLOBAL| Total number of message passing processes                            28
 GLOBAL| Number of threads for this process                                    1
 GLOBAL| This output is from process                                           0
 GLOBAL| Stack size for threads created by OpenMP (OMP_STACKSIZE)        default
 GLOBAL| CPU model name                 Intel(R) Xeon(R) Gold 6132 CPU @ 2.60GHz
 GLOBAL| CPUID                                                              1003
 GLOBAL| Compiled for CPUID                                                 1002

 *** HINT in environment.F:869 :: The compiler target flags (x86_avx2)     ***
 *** used to build this binary cannot exploit all extensions of this CPU   ***
 *** model (x86_avx512). Consider compiler target flags as part of FCFLAGS ***
 *** and CFLAGS (ARCH file).                                               ***


 MEMORY| system memory details [Kb]
 MEMORY|                        rank 0           min           max       average
 MEMORY| MemTotal            196525824     196525824     196525824     196525824
 MEMORY| MemFree             183291988     183291988     183291988     183291988
 MEMORY| Buffers                253900        253900        253900        253900
 MEMORY| Cached                5183300       5183300       5183300       5183300
 MEMORY| Slab                   747264        747264        747264        747264
 MEMORY| SReclaimable           433156        433156        433156        433156
 MEMORY| MemLikelyFree       189162344     189162344     189162344     189162344


 *** Fundamental physical constants (SI units) ***

 *** Literature: B. J. Mohr and B. N. Taylor,
 ***             CODATA recommended values of the fundamental physical
 ***             constants: 2006, Web Version 5.1
 ***             http://physics.nist.gov/constants

 Speed of light in vacuum [m/s]                             2.99792458000000E+08
 Magnetic constant or permeability of vacuum [N/A**2]       1.25663706143592E-06
 Electric constant or permittivity of vacuum [F/m]          8.85418781762039E-12
 Planck constant (h) [J*s]                                  6.62606896000000E-34
 Planck constant (h-bar) [J*s]                              1.05457162825177E-34
 Elementary charge [C]                                      1.60217648700000E-19
 Electron mass [kg]                                         9.10938215000000E-31
 Electron g factor [ ]                                     -2.00231930436220E+00
 Proton mass [kg]                                           1.67262163700000E-27
 Fine-structure constant                                    7.29735253760000E-03
 Rydberg constant [1/m]                                     1.09737315685270E+07
 Avogadro constant [1/mol]                                  6.02214179000000E+23
 Boltzmann constant [J/K]                                   1.38065040000000E-23
 Atomic mass unit [kg]                                      1.66053878200000E-27
 Bohr radius [m]                                            5.29177208590000E-11

 *** Conversion factors ***

 [u] -> [a.u.]                                              1.82288848426455E+03
 [Angstrom] -> [Bohr] = [a.u.]                              1.88972613288564E+00
 [a.u.] = [Bohr] -> [Angstrom]                              5.29177208590000E-01
 [a.u.] -> [s]                                              2.41888432650478E-17
 [a.u.] -> [fs]                                             2.41888432650478E-02
 [a.u.] -> [J]                                              4.35974393937059E-18
 [a.u.] -> [N]                                              8.23872205491840E-08
 [a.u.] -> [K]                                              3.15774647902944E+05
 [a.u.] -> [kJ/mol]                                         2.62549961709828E+03
 [a.u.] -> [kcal/mol]                                       6.27509468713739E+02
 [a.u.] -> [Pa]                                             2.94210107994716E+13
 [a.u.] -> [bar]                                            2.94210107994716E+08
 [a.u.] -> [atm]                                            2.90362800883016E+08
 [a.u.] -> [eV]                                             2.72113838565563E+01
 [a.u.] -> [Hz]                                             6.57968392072181E+15
 [a.u.] -> [1/cm] (wave numbers)                            2.19474631370540E+05
 [a.u./Bohr**2] -> [1/cm]                                   5.14048714338585E+03
 

 CELL_TOP| Volume [angstrom^3]:                                      9175.270900
 CELL_TOP| Vector a [angstrom    20.935     0.000     0.000   |a| =    20.935000
 CELL_TOP| Vector b [angstrom     0.000    20.935     0.000   |b| =    20.935000
 CELL_TOP| Vector c [angstrom     0.000     0.000    20.935   |c| =    20.935000
 CELL_TOP| Angle (b,c), alpha [degree]:                                90.000000
 CELL_TOP| Angle (a,c), beta  [degree]:                                90.000000
 CELL_TOP| Angle (a,b), gamma [degree]:                                90.000000
 CELL_TOP| Numerically orthorhombic:                                         YES
 
 GENERATE|  Preliminary Number of Bonds generated:                             0
 GENERATE|  Achieved consistency in connectivity generation.

 CELL| Volume [angstrom^3]:                                          9175.270900
 CELL| Vector a [angstrom]:      20.935     0.000     0.000   |a| =    20.935000
 CELL| Vector b [angstrom]:       0.000    20.935     0.000   |b| =    20.935000
 CELL| Vector c [angstrom]:       0.000     0.000    20.935   |c| =    20.935000
 CELL| Angle (b,c), alpha [degree]:                                    90.000000
 CELL| Angle (a,c), beta  [degree]:                                    90.000000
 CELL| Angle (a,b), gamma [degree]:                                    90.000000
 CELL| Numerically orthorhombic:                                             YES

 CELL_REF| Volume [angstrom^3]:                                      9175.270900
 CELL_REF| Vector a [angstrom    20.935     0.000     0.000   |a| =    20.935000
 CELL_REF| Vector b [angstrom     0.000    20.935     0.000   |b| =    20.935000
 CELL_REF| Vector c [angstrom     0.000     0.000    20.935   |c| =    20.935000
 CELL_REF| Angle (b,c), alpha [degree]:                                90.000000
 CELL_REF| Angle (a,c), beta  [degree]:                                90.000000
 CELL_REF| Angle (a,b), gamma [degree]:                                90.000000
 CELL_REF| Numerically orthorhombic:                                         YES

 *******************************************************************************
 *******************************************************************************
 **                                                                           **
 **     #####                         ##              ##                      **
 **    ##   ##            ##          ##              ##                      **
 **   ##     ##                       ##            ######                    **
 **   ##     ##  ##   ##  ##   #####  ##  ##   ####   ##    #####    #####    **
 **   ##     ##  ##   ##  ##  ##      ## ##   ##      ##   ##   ##  ##   ##   **
 **   ##  ## ##  ##   ##  ##  ##      ####     ###    ##   ######   ######    **
 **    ##  ###   ##   ##  ##  ##      ## ##      ##   ##   ##       ##        **
 **     #######   #####   ##   #####  ##  ##  ####    ##    #####   ##        **
 **           ##                                                    ##        **
 **                                                                           **
 **                                                ... make the atoms dance   **
 **                                                                           **
 **            Copyright (C) by CP2K developers group (2000-2021)             **
 **                      J. Chem. Phys. 152, 194103 (2020)                    **
 **                                                                           **
 *******************************************************************************

 DFT| Spin restricted Kohn-Sham (RKS) calculation                            RKS
 DFT| Multiplicity                                                             1
 DFT| Number of spin states                                                    1
 DFT| Charge                                                                   0
 DFT| Self-interaction correction (SIC)                                       NO
 DFT| Cutoffs: density                                              1.000000E-10
 DFT|          gradient                                             1.000000E-10
 DFT|          tau                                                  1.000000E-10
 DFT|          cutoff_smoothing_range                               0.000000E+00
 DFT| XC density smoothing                                                  NONE
 DFT| XC derivatives                                                          PW
 FUNCTIONAL| ROUTINE=NEW
 FUNCTIONAL| PBE:
 FUNCTIONAL| J.P.Perdew, K.Burke, M.Ernzerhof, Phys. Rev. Letter, vol. 77, n 18,
 FUNCTIONAL|  pp. 3865-3868, (1996){spin unpolarized}                           

 QS| Method:                                                                 GPW
 QS| Density plane wave grid type                        NON-SPHERICAL FULLSPACE
 QS| Number of grid levels:                                                    4
 QS| Density cutoff [a.u.]:                                                225.0
 QS| Multi grid cutoff [a.u.]: 1) grid level                               225.0
 QS|                           2) grid level                                75.0
 QS|                           3) grid level                                25.0
 QS|                           4) grid level                                 8.3
 QS| Grid level progression factor:                                          3.0
 QS| Relative density cutoff [a.u.]:                                        20.0
 QS| Interaction thresholds: eps_pgf_orb:                                1.0E-06
 QS|                         eps_filter_matrix:                          0.0E+00
 QS|                         eps_core_charge:                            1.0E-14
 QS|                         eps_rho_gspace:                             1.0E-12
 QS|                         eps_rho_rspace:                             1.0E-12
 QS|                         eps_gvg_rspace:                             1.0E-06
 QS|                         eps_ppl:                                    1.0E-02
 QS|                         eps_ppnl:                                   1.0E-08


 ATOMIC KIND INFORMATION

  1. Atomic kind: I                                     Number of atoms:      81

     Orbital Basis Set                                        DZVP-MOLOPT-SR-GTH

       Number of orbital shell sets:                                           1
       Number of orbital shells:                                               5
       Number of primitive Cartesian functions:                                5
       Number of Cartesian basis functions:                                   14
       Number of spherical basis functions:                                   13
       Norm type:                                                              2

       Normalised Cartesian orbitals:

                        Set   Shell   Orbital            Exponent    Coefficient

                          1       1    2s                0.966173      -0.369082
                                                         0.828886      -0.032154
                                                         0.367159       0.255166
                                                         0.201369       0.106471
                                                         0.083015       0.018311

                          1       2    3s                0.966173       0.683204
                                                         0.828886      -0.158631
                                                         0.367159       0.177969
                                                         0.201369      -0.294034
                                                         0.083015       0.146292

                          1       3    3px               0.966173      -1.009678
                                                         0.828886       0.783764
                                                         0.367159       0.107863
                                                         0.201369       0.101262
                                                         0.083015       0.016495
                          1       3    3py               0.966173      -1.009678
                                                         0.828886       0.783764
                                                         0.367159       0.107863
                                                         0.201369       0.101262
                                                         0.083015       0.016495
                          1       3    3pz               0.966173      -1.009678
                                                         0.828886       0.783764
                                                         0.367159       0.107863
                                                         0.201369       0.101262
                                                         0.083015       0.016495

                          1       4    4px               0.966173       0.359095
                                                         0.828886      -0.244536
                                                         0.367159      -0.104560
                                                         0.201369      -0.016515
                                                         0.083015       0.074319
                          1       4    4py               0.966173       0.359095
                                                         0.828886      -0.244536
                                                         0.367159      -0.104560
                                                         0.201369      -0.016515
                                                         0.083015       0.074319
                          1       4    4pz               0.966173       0.359095
                                                         0.828886      -0.244536
                                                         0.367159      -0.104560
                                                         0.201369      -0.016515
                                                         0.083015       0.074319

                          1       5    4dx2              0.966173       0.425303
                                                         0.828886      -0.290637
                                                         0.367159      -0.113356
                                                         0.201369      -0.050939
                                                         0.083015      -0.003796
                          1       5    4dxy              0.966173       0.736646
                                                         0.828886      -0.503397
                                                         0.367159      -0.196338
                                                         0.201369      -0.088229
                                                         0.083015      -0.006576
                          1       5    4dxz              0.966173       0.736646
                                                         0.828886      -0.503397
                                                         0.367159      -0.196338
                                                         0.201369      -0.088229
                                                         0.083015      -0.006576
                          1       5    4dy2              0.966173       0.425303
                                                         0.828886      -0.290637
                                                         0.367159      -0.113356
                                                         0.201369      -0.050939
                                                         0.083015      -0.003796
                          1       5    4dyz              0.966173       0.736646
                                                         0.828886      -0.503397
                                                         0.367159      -0.196338
                                                         0.201369      -0.088229
                                                         0.083015      -0.006576
                          1       5    4dz2              0.966173       0.425303
                                                         0.828886      -0.290637
                                                         0.367159      -0.113356
                                                         0.201369      -0.050939
                                                         0.083015      -0.003796

       Atomic covalent radius [Angstrom]:                                  1.330

       Atomic van der Waals radius [Angstrom]:                             1.980

     GTH Potential information for                                    GTH-PBE-q7

       Description:                       Goedecker-Teter-Hutter pseudopotential
                                           Goedecker et al., PRB 54, 1703 (1996)
                                          Hartwigsen et al., PRB 58, 3641 (1998)
                                                      Krack, TCA 114, 145 (2005)

       Gaussian exponent of the core charge distribution:               1.594388
       Electronic configuration (s p d ...):                               2   5

       Parameters of the local part of the GTH pseudopotential:

                          rloc        C1          C2          C3          C4
                        0.560000    8.207102

       Parameters of the non-local part of the GTH pseudopotential:

                   l      r(l)      h(i,j,l)

                   0    0.531928    2.308146    1.003909   -0.959156
                                    1.003909   -2.856109    2.476530
                                   -0.959156    2.476530   -1.965685
                   1    0.589182    0.906482    0.425071
                                    0.425071   -0.502950
                   2    0.739721    0.479195

  2. Atomic kind: Cs                                    Number of atoms:      27

     Orbital Basis Set                                        DZVP-MOLOPT-SR-GTH

       Number of orbital shell sets:                                           1
       Number of orbital shells:                                               6
       Number of primitive Cartesian functions:                                6
       Number of Cartesian basis functions:                                   15
       Number of spherical basis functions:                                   14
       Norm type:                                                              2

       Normalised Cartesian orbitals:

                        Set   Shell   Orbital            Exponent    Coefficient

                          1       1    2s                1.000866       0.374652
                                                         0.913482       0.447213
                                                         0.666654      -0.482233
                                                         0.332486      -0.299606
                                                         0.149837      -0.045594
                                                         0.026691       0.024754

                          1       2    3s                1.000866       0.063459
                                                         0.913482      -0.059302
                                                         0.666654       0.056266
                                                         0.332486      -0.135928
                                                         0.149837       0.012155
                                                         0.026691       0.050045

                          1       3    4s                1.000866       0.019138
                                                         0.913482       0.189431
                                                         0.666654      -0.298798
                                                         0.332486       0.818329
                                                         0.149837      -0.509541
                                                         0.026691       0.047786

                          1       4    3px               1.000866      -0.632251
                                                         0.913482      -0.025433
                                                         0.666654       0.528297
                                                         0.332486       0.148959
                                                         0.149837       0.056305
                                                         0.026691       0.000225
                          1       4    3py               1.000866      -0.632251
                                                         0.913482      -0.025433
                                                         0.666654       0.528297
                                                         0.332486       0.148959
                                                         0.149837       0.056305
                                                         0.026691       0.000225
                          1       4    3pz               1.000866      -0.632251
                                                         0.913482      -0.025433
                                                         0.666654       0.528297
                                                         0.332486       0.148959
                                                         0.149837       0.056305
                                                         0.026691       0.000225

                          1       5    4px               1.000866       0.003116
                                                         0.913482       0.100874
                                                         0.666654      -0.106148
                                                         0.332486      -0.012146
                                                         0.149837      -0.009508
                                                         0.026691       0.015912
                          1       5    4py               1.000866       0.003116
                                                         0.913482       0.100874
                                                         0.666654      -0.106148
                                                         0.332486      -0.012146
                                                         0.149837      -0.009508
                                                         0.026691       0.015912
                          1       5    4pz               1.000866       0.003116
                                                         0.913482       0.100874
                                                         0.666654      -0.106148
                                                         0.332486      -0.012146
                                                         0.149837      -0.009508
                                                         0.026691       0.015912

                          1       6    4dx2              1.000866       0.209582
                                                         0.913482       0.087006
                                                         0.666654      -0.167560
                                                         0.332486      -0.110462
                                                         0.149837      -0.034232
                                                         0.026691       0.000970
                          1       6    4dxy              1.000866       0.363006
                                                         0.913482       0.150699
                                                         0.666654      -0.290222
                                                         0.332486      -0.191325
                                                         0.149837      -0.059291
                                                         0.026691       0.001680
                          1       6    4dxz              1.000866       0.363006
                                                         0.913482       0.150699
                                                         0.666654      -0.290222
                                                         0.332486      -0.191325
                                                         0.149837      -0.059291
                                                         0.026691       0.001680
                          1       6    4dy2              1.000866       0.209582
                                                         0.913482       0.087006
                                                         0.666654      -0.167560
                                                         0.332486      -0.110462
                                                         0.149837      -0.034232
                                                         0.026691       0.000970
                          1       6    4dyz              1.000866       0.363006
                                                         0.913482       0.150699
                                                         0.666654      -0.290222
                                                         0.332486      -0.191325
                                                         0.149837      -0.059291
                                                         0.026691       0.001680
                          1       6    4dz2              1.000866       0.209582
                                                         0.913482       0.087006
                                                         0.666654      -0.167560
                                                         0.332486      -0.110462
                                                         0.149837      -0.034232
                                                         0.026691       0.000970

       Atomic covalent radius [Angstrom]:                                  2.350

       Atomic van der Waals radius [Angstrom]:                             3.430

     GTH Potential information for                                    GTH-PBE-q9

       Description:                       Goedecker-Teter-Hutter pseudopotential
                                           Goedecker et al., PRB 54, 1703 (1996)
                                          Hartwigsen et al., PRB 58, 3641 (1998)
                                                      Krack, TCA 114, 145 (2005)

       Gaussian exponent of the core charge distribution:               1.714678
       Electronic configuration (s p d ...):                               3   6

       Parameters of the local part of the GTH pseudopotential:

                          rloc        C1          C2          C3          C4
                        0.540000   33.313317   -2.921217

       Parameters of the non-local part of the GTH pseudopotential:

                   l      r(l)      h(i,j,l)

                   0    0.461896   -3.322927    2.455653
                                    2.455653   -3.170235
                   1    0.366359   -4.950764    0.840390
                                    0.840390   -0.994363
                   2    0.761502    0.198407
                   3    0.597015   -1.550567

  3. Atomic kind: Pb                                    Number of atoms:      27

     Orbital Basis Set                                        DZVP-MOLOPT-SR-GTH

       Number of orbital shell sets:                                           1
       Number of orbital shells:                                               5
       Number of primitive Cartesian functions:                                5
       Number of Cartesian basis functions:                                   14
       Number of spherical basis functions:                                   13
       Norm type:                                                              2

       Normalised Cartesian orbitals:

                        Set   Shell   Orbital            Exponent    Coefficient

                          1       1    2s                1.933598      -0.156134
                                                         0.981425       0.419979
                                                         0.222223      -0.230246
                                                         0.077759      -0.022545
                                                         0.073968      -0.008640

                          1       2    3s                1.933598      -0.177801
                                                         0.981425       0.403014
                                                         0.222223      -0.232050
                                                         0.077759      -0.139265
                                                         0.073968       0.289772

                          1       3    3px               1.933598       0.064608
                                                         0.981425      -0.243154
                                                         0.222223       0.142297
                                                         0.077759       0.018505
                                                         0.073968       0.009435
                          1       3    3py               1.933598       0.064608
                                                         0.981425      -0.243154
                                                         0.222223       0.142297
                                                         0.077759       0.018505
                                                         0.073968       0.009435
                          1       3    3pz               1.933598       0.064608
                                                         0.981425      -0.243154
                                                         0.222223       0.142297
                                                         0.077759       0.018505
                                                         0.073968       0.009435

                          1       4    4px               1.933598       0.047367
                                                         0.981425       0.285258
                                                         0.222223      -0.217356
                                                         0.077759      -0.184892
                                                         0.073968       0.247383
                          1       4    4py               1.933598       0.047367
                                                         0.981425       0.285258
                                                         0.222223      -0.217356
                                                         0.077759      -0.184892
                                                         0.073968       0.247383
                          1       4    4pz               1.933598       0.047367
                                                         0.981425       0.285258
                                                         0.222223      -0.217356
                                                         0.077759      -0.184892
                                                         0.073968       0.247383

                          1       5    4dx2              1.933598       0.052335
                                                         0.981425      -0.107176
                                                         0.222223       0.033909
                                                         0.077759      -0.008541
                                                         0.073968       0.021884
                          1       5    4dxy              1.933598       0.090648
                                                         0.981425      -0.185634
                                                         0.222223       0.058732
                                                         0.077759      -0.014794
                                                         0.073968       0.037904
                          1       5    4dxz              1.933598       0.090648
                                                         0.981425      -0.185634
                                                         0.222223       0.058732
                                                         0.077759      -0.014794
                                                         0.073968       0.037904
                          1       5    4dy2              1.933598       0.052335
                                                         0.981425      -0.107176
                                                         0.222223       0.033909
                                                         0.077759      -0.008541
                                                         0.073968       0.021884
                          1       5    4dyz              1.933598       0.090648
                                                         0.981425      -0.185634
                                                         0.222223       0.058732
                                                         0.077759      -0.014794
                                                         0.073968       0.037904
                          1       5    4dz2              1.933598       0.052335
                                                         0.981425      -0.107176
                                                         0.222223       0.033909
                                                         0.077759      -0.008541
                                                         0.073968       0.021884

       Atomic covalent radius [Angstrom]:                                  1.470

       Atomic van der Waals radius [Angstrom]:                             2.020

     GTH Potential information for                                    GTH-PBE-q4

       Description:                       Goedecker-Teter-Hutter pseudopotential
                                           Goedecker et al., PRB 54, 1703 (1996)
                                          Hartwigsen et al., PRB 58, 3641 (1998)
                                                      Krack, TCA 114, 145 (2005)

       Gaussian exponent of the core charge distribution:               1.311282
       Electronic configuration (s p d ...):                               2   2

       Parameters of the local part of the GTH pseudopotential:

                          rloc        C1          C2          C3          C4
                        0.617500    4.672384

       Parameters of the non-local part of the GTH pseudopotential:

                   l      r(l)      h(i,j,l)

                   0    0.622359    0.879918    2.081148   -1.431257
                                    2.081148   -5.014690    3.695490
                                   -1.431257    3.695490   -2.933204
                   1    0.812002    0.153457    0.478898
                                    0.478898   -0.566640
                   2    1.025015    0.301702


 MOLECULE KIND INFORMATION


 All atoms are their own molecule, skipping detailed information


 TOTAL NUMBERS AND MAXIMUM NUMBERS

  Total number of            - Atomic kinds:                                   3
                             - Atoms:                                        135
                             - Shell sets:                                   135
                             - Shells:                                       702
                             - Primitive Cartesian functions:                702
                             - Cartesian basis functions:                   1917
                             - Spherical basis functions:                   1782

  Maximum angular momentum of- Orbital basis functions:                        2
                             - Local part of the GTH pseudopotential:          2
                             - Non-local part of the GTH pseudopotential:      4


 MODULE QUICKSTEP:  ATOMIC COORDINATES IN angstrom

 Atom  Kind  Element       X           Y           Z          Z(eff)       Mass
    1   1 I   53       2.280000   19.047001    5.192000       7.0000    126.9045
    2   1 I   53      19.943000    2.223000   15.919999       7.0000    126.9045
    3   1 I   53       1.787000    4.287000   20.757000       7.0000    126.9045
    4   1 I   53       1.876000   11.064000    3.527000       7.0000    126.9045
    5   1 I   53       0.414000   11.170999   11.250000       7.0000    126.9045
    6   1 I   53       1.574000    6.403000   14.347000       7.0000    126.9045
    7   1 I   53       0.576000   17.002000    1.313000       7.0000    126.9045
    8   1 I   53       3.022000   15.281000   11.022999       7.0000    126.9045
    9   1 I   53      18.063000    9.851000   17.004999       7.0000    126.9045
   10   1 I   53       6.749000    1.608000    3.252000       7.0000    126.9045
   11   1 I   53      12.340999   16.162001    4.336000       7.0000    126.9045
   12   1 I   53       3.310000    3.354000   16.995000       7.0000    126.9045
   13   1 I   53       6.907000    1.269000   19.749000       7.0000    126.9045
   14   1 I   53       6.219000    7.112000    7.790999       7.0000    126.9045
   15   1 I   53       0.487000    9.477000   20.881999       7.0000    126.9045
   16   1 I   53      10.636000    8.767999    1.202000       7.0000    126.9045
   17   1 I   53       9.347000   12.487001   14.286999       7.0000    126.9045
   18   1 I   53       5.683000   15.188999   13.857001       7.0000    126.9045
   19   1 I   53      14.223000   18.824000    1.966000       7.0000    126.9045
   20   1 I   53      18.827999   20.561001    9.684000       7.0000    126.9045
   21   1 I   53       7.859000    1.358000   15.358000       7.0000    126.9045
   22   1 I   53      15.727999   10.215999    8.788999       7.0000    126.9045
   23   1 I   53      11.601000    3.647000   14.561999       7.0000    126.9045
   24   1 I   53      12.185000    9.691000   15.795000       7.0000    126.9045
   25   1 I   53      17.591999   11.293999    1.519000       7.0000    126.9045
   26   1 I   53      17.413000   14.583000   11.599000       7.0000    126.9045
   27   1 I   53      12.028999   13.191000   20.378999       7.0000    126.9045
   28   1 I   53      14.994999    3.015000   17.916999       7.0000    126.9045
   29   1 I   53      20.865999    1.769000    6.653000       7.0000    126.9045
   30   1 I   53       3.168000    7.380000   10.067000       7.0000    126.9045
   31   1 I   53      17.208000    6.067000   19.787999       7.0000    126.9045
   32   1 I   53      20.818000   15.934000    7.685000       7.0000    126.9045
   33   1 I   53       0.846000   10.241000   15.747000       7.0000    126.9045
   34   1 I   53       2.089000   20.705999   20.629999       7.0000    126.9045
   35   1 I   53       6.030000   17.816999    7.549000       7.0000    126.9045
   36   1 I   53       1.782000   20.093000   14.630999       7.0000    126.9045
   37   1 I   53       5.517000   17.631999    0.764000       7.0000    126.9045
   38   1 I   53      11.463999    1.266000    4.447000       7.0000    126.9045
   39   1 I   53       4.240000    2.538000   12.471000       7.0000    126.9045
   40   1 I   53       6.852000   10.807000    2.121000       7.0000    126.9045
   41   1 I   53       9.880000   14.278000    8.715000       7.0000    126.9045
   42   1 I   53       7.329000    5.449000    1.610000       7.0000    126.9045
   43   1 I   53       8.269000   18.148000    3.652000       7.0000    126.9045
   44   1 I   53      13.378000   15.866000   11.146000       7.0000    126.9045
   45   1 I   53       7.584000   18.431998   16.107999       7.0000    126.9045
   46   1 I   53      13.606000    3.409000    0.982000       7.0000    126.9045
   47   1 I   53      17.738000    8.094000    5.125000       7.0000    126.9045
   48   1 I   53      12.420999    2.936000    8.924000       7.0000    126.9045
   49   1 I   53      11.911000    6.524000   19.061000       7.0000    126.9045
   50   1 I   53      11.584000    9.248999    7.200000       7.0000    126.9045
   51   1 I   53       8.341999   10.020000   18.179999       7.0000    126.9045
   52   1 I   53      16.115999   14.100000   19.382000       7.0000    126.9045
   53   1 I   53      15.853000   15.831999    7.395000       7.0000    126.9045
   54   1 I   53      11.786999   19.805999   16.783000       7.0000    126.9045
   55   1 I   53      20.764999    5.047000    3.769000       7.0000    126.9045
   56   1 I   53       2.430000   19.688000    9.432000       7.0000    126.9045
   57   1 I   53      18.558999    0.450000   20.089000       7.0000    126.9045
   58   1 I   53       4.406000    4.981000    4.256000       7.0000    126.9045
   59   1 I   53       8.336000   10.137000    9.628999       7.0000    126.9045
   60   1 I   53       5.211000   10.038000   13.199000       7.0000    126.9045
   61   1 I   53       2.731000   13.338000   20.424000       7.0000    126.9045
   62   1 I   53       4.216000   13.065000    7.574000       7.0000    126.9045
   63   1 I   53       9.892000   16.902000   12.959000       7.0000    126.9045
   64   1 I   53      10.446000   19.811000    0.513000       7.0000    126.9045
   65   1 I   53      14.073000    4.737000    5.028000       7.0000    126.9045
   66   1 I   53       8.832000   20.239999   10.961000       7.0000    126.9045
   67   1 I   53       4.663000    8.215000   19.311000       7.0000    126.9045
   68   1 I   53      14.096000   11.005000    3.841000       7.0000    126.9045
   69   1 I   53       8.766000    5.807000   10.829000       7.0000    126.9045
   70   1 I   53      16.430999   14.588000    2.568000       7.0000    126.9045
   71   1 I   53      11.889000   15.448000   16.469999       7.0000    126.9045
   72   1 I   53       8.056000   14.758000   18.669999       7.0000    126.9045
   73   1 I   53      17.356000    3.222000    3.054000       7.0000    126.9045
   74   1 I   53      18.357000   19.708999    4.240000       7.0000    126.9045
   75   1 I   53      18.125998   18.690999   16.152000       7.0000    126.9045
   76   1 I   53      14.637000    9.389000   19.725000       7.0000    126.9045
   77   1 I   53       0.077000   10.636000    7.429000       7.0000    126.9045
   78   1 I   53      12.961999   20.746999   12.326000       7.0000    126.9045
   79   1 I   53       0.970000   16.791000   17.618000       7.0000    126.9045
   80   1 I   53      13.331999   11.720000   11.889999       7.0000    126.9045
   81   1 I   53      17.841999    8.583000   12.696000       7.0000    126.9045
   82   2 Cs  55      20.474999    1.481000    2.142000       9.0000    132.9055
   83   2 Cs  55       4.574000    0.236000    6.689000       9.0000    132.9055
   84   2 Cs  55      20.669999    5.808000   17.794000       9.0000    132.9055
   85   2 Cs  55       3.028000    9.076000    6.665000       9.0000    132.9055
   86   2 Cs  55       6.349000   13.397999   10.623000       9.0000    132.9055
   87   2 Cs  55      19.997999   12.913999   20.004000       9.0000    132.9055
   88   2 Cs  55       2.925000   15.406000    4.313000       9.0000    132.9055
   89   2 Cs  55       5.175000   18.833000   12.347999       9.0000    132.9055
   90   2 Cs  55       4.814000   20.233999   17.583999       9.0000    132.9055
   91   2 Cs  55      10.527999    2.626000   18.347999       9.0000    132.9055
   92   2 Cs  55      13.604999    7.166000    1.871000       9.0000    132.9055
   93   2 Cs  55       5.493000    5.068000   14.988000       9.0000    132.9055
   94   2 Cs  55      10.227999   11.272000    4.236000       9.0000    132.9055
   95   2 Cs  55      11.134000    8.663000   11.485000       9.0000    132.9055
   96   2 Cs  55       5.282000   12.227000   17.169000       9.0000    132.9055
   97   2 Cs  55      18.392999   17.823000    0.129000       9.0000    132.9055
   98   2 Cs  55       9.772999    5.663000    7.316999       9.0000    132.9055
   99   2 Cs  55      12.269000   16.746999   19.856001       9.0000    132.9055
  100   2 Cs  55      17.445998    3.245000    6.552000       9.0000    132.9055
  101   2 Cs  55      10.276000   17.853999    8.781000       9.0000    132.9055
  102   2 Cs  55      14.847999    0.171000   15.378999       9.0000    132.9055
  103   2 Cs  55      18.634999    7.759000    1.820000       9.0000    132.9055
  104   2 Cs  55      19.972999    7.892000    9.680999       9.0000    132.9055
  105   2 Cs  55      14.372999    6.537000   16.114000       9.0000    132.9055
  106   2 Cs  55      17.294999   11.922000    5.263000       9.0000    132.9055
  107   2 Cs  55      19.686001   17.049000   10.949999       9.0000    132.9055
  108   2 Cs  55      14.569999   12.307999   15.715999       9.0000    132.9055
  109   3 Pb  82      16.816000    3.360000   20.573000       4.0000    207.2000
  110   3 Pb  82      20.176999   19.853999    7.051000       4.0000    207.2000
  111   3 Pb  82      20.586000   20.313000   17.392000       4.0000    207.2000
  112   3 Pb  82       2.180000    5.888000    2.275000       4.0000    207.2000
  113   3 Pb  82       1.330000   13.411000    8.899999       4.0000    207.2000
  114   3 Pb  82       2.123000    9.076999   12.721000       4.0000    207.2000
  115   3 Pb  82       2.746000   17.660998   20.141001       4.0000    207.2000
  116   3 Pb  82       2.991000   17.197000    8.280000       4.0000    207.2000
  117   3 Pb  82      19.033000   10.883999   14.550999       4.0000    207.2000
  118   3 Pb  82       7.429000   19.829000    1.458000       4.0000    207.2000
  119   3 Pb  82      11.130000   19.071999    3.385000       4.0000    207.2000
  120   3 Pb  82       1.616000    2.462000   14.069999       4.0000    207.2000
  121   3 Pb  82       3.146000   10.547000    0.772000       4.0000    207.2000
  122   3 Pb  82       5.445000    3.263000    0.958000       4.0000    207.2000
  123   3 Pb  82       6.397999    7.874000   10.553001       4.0000    207.2000
  124   3 Pb  82       7.364000    8.579000    0.055000       4.0000    207.2000
  125   3 Pb  82      11.030000   14.180999   11.662000       4.0000    207.2000
  126   3 Pb  82       8.219000   15.439000   15.246000       4.0000    207.2000
  127   3 Pb  82      14.288999    1.915000    3.443000       4.0000    207.2000
  128   3 Pb  82      15.393999   16.750000    4.255000       4.0000    207.2000
  129   3 Pb  82      10.231000   20.083999   14.483999       4.0000    207.2000
  130   3 Pb  82      11.523000    9.392000   18.996000       4.0000    207.2000
  131   3 Pb  82      14.632000    9.041000    6.214000       4.0000    207.2000
  132   3 Pb  82      10.935000    2.225000   11.762000       4.0000    207.2000
  133   3 Pb  82      14.999000   11.963000    0.193000       4.0000    207.2000
  134   3 Pb  82      15.378000   13.477000    9.617000       4.0000    207.2000
  135   3 Pb  82      10.210000   12.845000   17.652000       4.0000    207.2000




 SCF PARAMETERS         Density guess:                                    ATOMIC
                        --------------------------------------------------------
                        max_scf:                                              60
                        max_scf_history:                                       0
                        max_diis:                                              4
                        --------------------------------------------------------
                        eps_scf:                                        1.00E-06
                        eps_scf_history:                                0.00E+00
                        eps_diis:                                       1.00E-01
                        eps_eigval:                                     1.00E-05
                        --------------------------------------------------------
                        level_shift [a.u.]:                                 0.00
                        --------------------------------------------------------
                        Outer loop SCF in use 
                        No variables optimised in outer loop
                        eps_scf                                         1.00E-06
                        max_scf                                               60
                        No outer loop optimization
                        step_size                                       5.00E-01

 PW_GRID| Information for grid number                                          1
 PW_GRID| Grid distributed over                                    28 processors
 PW_GRID| Real space group dimensions                                    28    1
 PW_GRID| the grid is blocked:                                                NO
 PW_GRID| Cutoff [a.u.]                                                    225.0
 PW_GRID| spherical cutoff:                                                   NO
 PW_GRID|   Bounds   1           -135     134                Points:         270
 PW_GRID|   Bounds   2           -135     134                Points:         270
 PW_GRID|   Bounds   3           -135     134                Points:         270
 PW_GRID| Volume element (a.u.^3)  0.3146E-02     Volume (a.u.^3)     61917.7979
 PW_GRID| Grid span                                                    FULLSPACE
 PW_GRID|   Distribution                         Average         Max         Min
 PW_GRID|   G-Vectors                           702964.3      703080      702810
 PW_GRID|   G-Rays                                2603.6        2604        2603
 PW_GRID|   Real Space Points                   702964.3      729000      656100

 PW_GRID| Information for grid number                                          2
 PW_GRID| Number of the reference grid                                         1
 PW_GRID| Grid distributed over                                    28 processors
 PW_GRID| Real space group dimensions                                    28    1
 PW_GRID| the grid is blocked:                                                NO
 PW_GRID| Cutoff [a.u.]                                                     75.0
 PW_GRID| spherical cutoff:                                                   NO
 PW_GRID|   Bounds   1            -80      79                Points:         160
 PW_GRID|   Bounds   2            -80      79                Points:         160
 PW_GRID|   Bounds   3            -80      79                Points:         160
 PW_GRID| Volume element (a.u.^3)  0.1512E-01     Volume (a.u.^3)     61917.7979
 PW_GRID| Grid span                                                    FULLSPACE
 PW_GRID|   Distribution                         Average         Max         Min
 PW_GRID|   G-Vectors                           146285.7      146400      146080
 PW_GRID|   G-Rays                                 914.3         915         913
 PW_GRID|   Real Space Points                   146285.7      153600      128000

 PW_GRID| Information for grid number                                          3
 PW_GRID| Number of the reference grid                                         1
 PW_GRID| Grid distributed over                                    28 processors
 PW_GRID| Real space group dimensions                                    28    1
 PW_GRID| the grid is blocked:                                                NO
 PW_GRID| Cutoff [a.u.]                                                     25.0
 PW_GRID| spherical cutoff:                                                   NO
 PW_GRID|   Bounds   1            -45      44                Points:          90
 PW_GRID|   Bounds   2            -45      44                Points:          90
 PW_GRID|   Bounds   3            -45      44                Points:          90
 PW_GRID| Volume element (a.u.^3)  0.8494E-01     Volume (a.u.^3)     61917.7979
 PW_GRID| Grid span                                                    FULLSPACE
 PW_GRID|   Distribution                         Average         Max         Min
 PW_GRID|   G-Vectors                            26035.7       26190       25830
 PW_GRID|   G-Rays                                 289.3         291         287
 PW_GRID|   Real Space Points                    26035.7       32400       24300

 PW_GRID| Information for grid number                                          4
 PW_GRID| Number of the reference grid                                         1
 PW_GRID| Grid distributed over                                    28 processors
 PW_GRID| Real space group dimensions                                    28    1
 PW_GRID| the grid is blocked:                                                NO
 PW_GRID| Cutoff [a.u.]                                                      8.3
 PW_GRID| spherical cutoff:                                                   NO
 PW_GRID|   Bounds   1            -27      26                Points:          54
 PW_GRID|   Bounds   2            -27      26                Points:          54
 PW_GRID|   Bounds   3            -27      26                Points:          54
 PW_GRID| Volume element (a.u.^3)  0.3932         Volume (a.u.^3)     61917.7979
 PW_GRID| Grid span                                                    FULLSPACE
 PW_GRID|   Distribution                         Average         Max         Min
 PW_GRID|   G-Vectors                             5623.7        5670        5616
 PW_GRID|   G-Rays                                 104.1         105         104
 PW_GRID|   Real Space Points                     5623.7        5832        2916

 POISSON| Solver                                                        PERIODIC
 POISSON| Periodicity                                                        XYZ

 RS_GRID| Information for grid number                                          1
 RS_GRID|   Bounds   1           -135     134                Points:         270
 RS_GRID|   Bounds   2           -135     134                Points:         270
 RS_GRID|   Bounds   3           -135     134                Points:         270
 RS_GRID| Real space distribution over                                  4 groups
 RS_GRID| Real space distribution along direction                              2
 RS_GRID| Border size                                                         34
 RS_GRID| Real space distribution over                                  7 groups
 RS_GRID| Real space distribution along direction                              3
 RS_GRID| Border size                                                         34
 RS_GRID|   Distribution                         Average         Max         Min
 RS_GRID|   Planes                                 135.5         136         135
 RS_GRID|   Distribution                         Average         Max         Min
 RS_GRID|   Planes                                 106.6         107         106

 RS_GRID| Information for grid number                                          2
 RS_GRID|   Bounds   1            -80      79                Points:         160
 RS_GRID|   Bounds   2            -80      79                Points:         160
 RS_GRID|   Bounds   3            -80      79                Points:         160
 RS_GRID| Real space distribution over                                  4 groups
 RS_GRID| Real space distribution along direction                              2
 RS_GRID| Border size                                                         23
 RS_GRID| Real space distribution over                                  7 groups
 RS_GRID| Real space distribution along direction                              3
 RS_GRID| Border size                                                         23
 RS_GRID|   Distribution                         Average         Max         Min
 RS_GRID|   Planes                                  86.0          86          86
 RS_GRID|   Distribution                         Average         Max         Min
 RS_GRID|   Planes                                  68.9          69          68

 RS_GRID| Information for grid number                                          3
 RS_GRID|   Bounds   1            -45      44                Points:          90
 RS_GRID|   Bounds   2            -45      44                Points:          90
 RS_GRID|   Bounds   3            -45      44                Points:          90
 RS_GRID| Real space fully replicated
 RS_GRID| Group size                                                           1

 RS_GRID| Information for grid number                                          4
 RS_GRID|   Bounds   1            -27      26                Points:          54
 RS_GRID|   Bounds   2            -27      26                Points:          54
 RS_GRID|   Bounds   3            -27      26                Points:          54
 RS_GRID| Real space fully replicated
 RS_GRID| Group size                                                           1
 
 MD_PAR| Molecular dynamics protocol (MD input parameters)
 MD_PAR| Ensemble type                                                     NPT_I
 MD_PAR| Number of time steps                                                  2
 MD_PAR| Time step [fs]                                                 1.000000
 MD_PAR| Temperature [K]                                              550.000000
 MD_PAR| Temperature tolerance [K]                                      0.000000
 MD_PAR| Pressure [bar]                                                 1.000000
 MD_PAR| Barostat time constant [fs]                                 1000.000000
 MD_PAR| Print MD information every                                    1 step(s)
 MD_PAR| File type   Print frequency [steps]                          File names
 MD_PAR| Coordinates          1                                   SbCl-pos-1.xyz
 MD_PAR| Cell                 1                                      SbCl-1.cell
 MD_PAR| Velocities           1                                   SbCl-vel-1.xyz
 MD_PAR| Energies             1                                      SbCl-1.ener
 MD_PAR| Dump                 1                                   SbCl-1.restart

 ROT| Rotational analysis information
 ROT| Principal axes and moments of inertia [a.u.]
 ROT|                           1                   2                   3
 ROT| Eigenvalues      9.04753422481E+09   9.44100778342E+09   9.88689617071E+09
 ROT|      x             -0.351879921808      0.679531641986      0.643752489834
 ROT|      y              0.053939132479     -0.671873559944      0.738699187380
 ROT|      z              0.934489748802      0.294656863127      0.199765468477
 ROT| Number of rotovibrational vectors                                        6

 DOF| Calculation of degrees of freedom
 DOF| Number of atoms                                                        135
 DOF| Number of intramolecular constraints                                     0
 DOF| Number of intermolecular constraints                                     0
 DOF| Invariants (translations + rotations)                                    3
 DOF| Degrees of freedom                                                     402

 DOF| Restraints information
 DOF| Number of intramolecular restraints                                      0
 DOF| Number of intermolecular restraints                                      0

 THERMOSTAT| Thermostat information for PARTICLES
 THERMOSTAT| Type of thermostat                               Nose-Hoover-Chains
 THERMOSTAT| Nose-Hoover-Chain length                                          4
 THERMOSTAT| Nose-Hoover-Chain time constant [fs]                      66.712819
 THERMOSTAT| Order of Yoshida integrator                                       3
 THERMOSTAT| Number of multiple time steps                                     2
 THERMOSTAT| Initial potential energy                         0.000000000000E+00
 THERMOSTAT| Initial kinetic energy                           0.870874219404E-03
 THERMOSTAT| End of thermostat information for PARTICLES

 THERMOSTAT| Thermostat information for BAROSTAT
 THERMOSTAT| Type of thermostat                               Nose-Hoover-Chains
 THERMOSTAT| Nose-Hoover-Chain length                                          4
 THERMOSTAT| Nose-Hoover-Chain time constant [fs]                      66.712819
 THERMOSTAT| Order of Yoshida integrator                                       3
 THERMOSTAT| Number of multiple time steps                                     2
 THERMOSTAT| Initial potential energy                         0.000000000000E+00
 THERMOSTAT| Initial kinetic energy                           0.870874219404E-03
 THERMOSTAT| End of thermostat information for BAROSTAT

 MD_VEL| Velocities initialization
 MD_VEL| Initial temperature [K]                                      550.000000
 MD_VEL| COM velocity             0.0000000000     0.0000000000     0.0000000000

 Number of electrons:                                                        918
 Number of occupied orbitals:                                                459
 Number of molecular orbitals:                                               459

 Number of orbital functions:                                               1782
 Number of independent orbital functions:                                   1782

 Extrapolation method: initial_guess

 Atomic guess: The first density matrix is obtained in terms of atomic orbitals
               and electronic configurations assigned to each atomic kind

 Guess for atomic kind: I

 Electronic structure
    Total number of core electrons                                         46.00
    Total number of valence electrons                                       7.00
    Total number of electrons                                              53.00
    Multiplicity                                                   not specified
    S   [  2.00  2.00  2.00  2.00] 2.00
    P   [  6.00  6.00  6.00] 5.00
    D   [ 10.00 10.00]
 

 *******************************************************************************
                  Iteration          Convergence                     Energy [au]
 *******************************************************************************
                          1        0.599523                     -11.164057164711
                          2        0.298319                     -11.261731112738
                          3        0.574035E-02                 -11.285207750878
                          4        0.213047E-01                 -11.285088649594
                          5        0.503516E-02                 -11.285209895964
                          6        0.378699E-02                 -11.285213000175
                          7        0.211745E-05                 -11.285217040406
                          8        0.233773E-06                 -11.285217040407

 Energy components [Hartree]           Total Energy ::          -11.285217040407
                                        Band Energy ::           -2.419961106938
                                     Kinetic Energy ::            3.273267224604
                                   Potential Energy ::          -14.558484265011
                                      Virial (-V/T) ::            4.447691943871
                                        Core Energy ::          -18.661808374058
                                          XC Energy ::           -2.141850400045
                                     Coulomb Energy ::            9.518441733696
                       Total Pseudopotential Energy ::          -22.013519462583
                       Local Pseudopotential Energy ::          -22.642239928683
                    Nonlocal Pseudopotential Energy ::            0.628720466100
                                        Confinement ::            0.784438639214

 Orbital energies  State     L     Occupation   Energy[a.u.]          Energy[eV]

                       1     0          2.000      -0.614669          -16.726007
 
                       1     1          5.000      -0.238124           -6.479695
 

 Total Electron Density at R=0:                                         0.000663

 Guess for atomic kind: Cs

 Electronic structure
    Total number of core electrons                                         46.00
    Total number of valence electrons                                       9.00
    Total number of electrons                                              55.00
    Multiplicity                                                   not specified
    S   [  2.00  2.00  2.00  2.00] 2.00  1.00
    P   [  6.00  6.00  6.00] 6.00
    D   [ 10.00 10.00]
 

 *******************************************************************************
                  Iteration          Convergence                     Energy [au]
 *******************************************************************************
                          1        0.217823                     -19.955577345183
                          2        0.458189E-01                 -19.991365249718
                          3        0.800284E-03                 -19.992243521365
                          4        0.308329E-05                 -19.992243799227
                          5        0.172284E-07                 -19.992243799230

 Energy components [Hartree]           Total Energy ::          -19.992243799230
                                        Band Energy ::           -4.905196256014
                                     Kinetic Energy ::            5.178742025475
                                   Potential Energy ::          -25.170985824705
                                      Virial (-V/T) ::            4.860444042373
                                        Core Energy ::          -32.972937773906
                                          XC Energy ::           -3.037331543174
                                     Coulomb Energy ::           16.018025517850
                       Total Pseudopotential Energy ::          -38.193813522810
                       Local Pseudopotential Energy ::          -37.110283622776
                    Nonlocal Pseudopotential Energy ::           -1.083529900034
                                        Confinement ::            0.421337234293

 Orbital energies  State     L     Occupation   Energy[a.u.]          Energy[eV]

                       1     0          2.000      -0.967551          -26.328405
                       2     0          1.000      -0.059150           -1.609558
 
                       1     1          6.000      -0.485157          -13.201802
 

 Total Electron Density at R=0:                                         0.001325

 Guess for atomic kind: Pb

 Electronic structure
    Total number of core electrons                                         78.00
    Total number of valence electrons                                       4.00
    Total number of electrons                                              82.00
    Multiplicity                                                   not specified
    S   [  2.00  2.00  2.00  2.00  2.00] 2.00
    P   [  6.00  6.00  6.00  6.00] 2.00
    D   [ 10.00 10.00 10.00]
    F   [ 14.00]
 

 *******************************************************************************
                  Iteration          Convergence                     Energy [au]
 *******************************************************************************
                          1        0.187346                      -3.310943853786
                          2        0.376276E-01                  -3.355530858610
                          3        0.472117E-03                  -3.357339639937
                          4        0.401405E-04                  -3.357339874932
                          5        0.178304E-04                  -3.357339876367
                          6        0.113599E-04                  -3.357339876577
                          7        0.204874E-07                  -3.357339876720

 Energy components [Hartree]           Total Energy ::           -3.357339876720
                                        Band Energy ::           -1.016683846131
                                     Kinetic Energy ::            1.156362655608
                                   Potential Energy ::           -4.513702532327
                                      Virial (-V/T) ::            3.903362418735
                                        Core Energy ::           -5.087373100085
                                          XC Energy ::           -0.874769215440
                                     Coulomb Energy ::            2.604802438805
                       Total Pseudopotential Energy ::           -6.306180168774
                       Local Pseudopotential Energy ::           -6.317972721342
                    Nonlocal Pseudopotential Energy ::            0.011792552568
                                        Confinement ::            0.624444130814

 Orbital energies  State     L     Occupation   Energy[a.u.]          Energy[eV]

                       1     0          2.000      -0.411794          -11.205478
 
                       1     1          2.000      -0.096548           -2.627210
 

 Total Electron Density at R=0:                                         0.000047
 Re-scaling the density matrix to get the right number of electrons
                  # Electrons              Trace(P)               Scaling factor
                          918               918.000                        1.000


 SCF WAVEFUNCTION OPTIMIZATION

  ----------------------------------- OT ---------------------------------------
  Minimizer      : DIIS                : direct inversion
                                         in the iterative subspace
                                         using   7 DIIS vectors
                                         safer DIIS on
  Preconditioner : FULL_KINETIC        : inversion of T + eS
  Precond_solver : DEFAULT
  stepsize       :    0.15000000                  energy_gap     :    0.20000000
  eps_taylor     :   0.10000E-15                  max_taylor     :             4
  ----------------------------------- OT ---------------------------------------

  Step     Update method      Time    Convergence         Total energy    Change
  ------------------------------------------------------------------------------
     1 OT DIIS     0.15E+00    2.3     0.01260654     -1546.3230489868 -1.55E+03
     2 OT DIIS     0.15E+00    2.3     0.00678648     -1558.4732591485 -1.22E+01
     3 OT DIIS     0.15E+00    2.3     0.00492196     -1562.6982176315 -4.22E+00
     4 OT DIIS     0.15E+00    2.3     0.00354443     -1565.8923809887 -3.19E+00
     5 OT DIIS     0.15E+00    2.3     0.00258190     -1568.0032593838 -2.11E+00
     6 OT DIIS     0.15E+00    2.3     0.00194724     -1569.5051642985 -1.50E+00
     7 OT DIIS     0.15E+00    2.5     0.00151076     -1570.5698326256 -1.06E+00
     8 OT DIIS     0.15E+00    2.9     0.00116971     -1571.3616310748 -7.92E-01
     9 OT DIIS     0.15E+00    2.5     0.00095028     -1571.8430437665 -4.81E-01
    10 OT DIIS     0.15E+00    2.5     0.00079840     -1572.1809370322 -3.38E-01
    11 OT DIIS     0.15E+00    2.7     0.00071108     -1572.4171437125 -2.36E-01
    12 OT DIIS     0.15E+00    2.3     0.00065357     -1572.5894963712 -1.72E-01
    13 OT DIIS     0.15E+00    2.3     0.00060921     -1572.7563555646 -1.67E-01
    14 OT DIIS     0.15E+00    2.3     0.00056090     -1572.8949074437 -1.39E-01
    15 OT DIIS     0.15E+00    2.9     0.00050425     -1573.0367976570 -1.42E-01
    16 OT DIIS     0.15E+00    2.4     0.00043627     -1573.1555859654 -1.19E-01
    17 OT DIIS     0.15E+00    2.3     0.00037891     -1573.2413848878 -8.58E-02
    18 OT DIIS     0.15E+00    2.3     0.00034609     -1573.2977070032 -5.63E-02
    19 OT DIIS     0.15E+00    2.3     0.00030392     -1573.3512653878 -5.36E-02
    20 OT DIIS     0.15E+00    2.3     0.00031737     -1573.3727517821 -2.15E-02
    21 OT DIIS     0.15E+00    2.3     0.00028249     -1573.3996366472 -2.69E-02
    22 OT DIIS     0.15E+00    2.8     0.00026511     -1573.4246139160 -2.50E-02
    23 OT DIIS     0.15E+00    2.3     0.00023748     -1573.4541820427 -2.96E-02
    24 OT DIIS     0.15E+00    2.3     0.00020598     -1573.4886146911 -3.44E-02
    25 OT DIIS     0.15E+00    2.3     0.00017883     -1573.5105686352 -2.20E-02
    26 OT DIIS     0.15E+00    2.5     0.00015536     -1573.5241495152 -1.36E-02
    27 OT DIIS     0.15E+00    2.3     0.00012643     -1573.5464052532 -2.23E-02
    28 OT DIIS     0.15E+00    2.5     0.00011910     -1573.5466049572 -2.00E-04
    29 OT DIIS     0.15E+00    2.3     0.00008867     -1573.5564784875 -9.87E-03
    30 OT DIIS     0.15E+00    2.3     0.00007356     -1573.5603284117 -3.85E-03
    31 OT DIIS     0.15E+00    2.3     0.00006289     -1573.5636941622 -3.37E-03
    32 OT DIIS     0.15E+00    2.3     0.00005187     -1573.5658549555 -2.16E-03
    33 OT DIIS     0.15E+00    2.6     0.00004563     -1573.5673181741 -1.46E-03
    34 OT DIIS     0.15E+00    2.3     0.00003881     -1573.5687803760 -1.46E-03
    35 OT DIIS     0.15E+00    3.2     0.00003394     -1573.5697604133 -9.80E-04
    36 OT DIIS     0.15E+00    2.3     0.00002875     -1573.5706094666 -8.49E-04
    37 OT DIIS     0.15E+00    2.3     0.00002581     -1573.5710611178 -4.52E-04
    38 OT DIIS     0.15E+00    2.3     0.00002270     -1573.5714934933 -4.32E-04
    39 OT DIIS     0.15E+00    2.6     0.00001993     -1573.5718854956 -3.92E-04
    40 OT DIIS     0.15E+00    2.3     0.00001817     -1573.5721244821 -2.39E-04
    41 OT DIIS     0.15E+00    2.3     0.00001663     -1573.5723459027 -2.21E-04
    42 OT DIIS     0.15E+00    2.3     0.00001498     -1573.5725707090 -2.25E-04
    43 OT DIIS     0.15E+00    2.3     0.00001380     -1573.5727327076 -1.62E-04
    44 OT DIIS     0.15E+00    2.3     0.00001230     -1573.5729345664 -2.02E-04
    45 OT DIIS     0.15E+00    2.3     0.00001144     -1573.5730456063 -1.11E-04
    46 OT DIIS     0.15E+00    2.4     0.00001079     -1573.5731355629 -9.00E-05
    47 OT DIIS     0.15E+00    2.3     0.00001003     -1573.5732420439 -1.06E-04
    48 OT DIIS     0.15E+00    2.3     0.00000944     -1573.5733287146 -8.67E-05
    49 OT DIIS     0.15E+00    2.3     0.00000889     -1573.5734148913 -8.62E-05
    50 OT DIIS     0.15E+00    2.7     0.00000837     -1573.5734965855 -8.17E-05
    51 OT DIIS     0.15E+00    2.5     0.00000791     -1573.5735698971 -7.33E-05
    52 OT DIIS     0.15E+00    2.5     0.00000739     -1573.5736533421 -8.34E-05
    53 OT DIIS     0.15E+00    2.4     0.00000702     -1573.5737095941 -5.63E-05
    54 OT DIIS     0.15E+00    3.0     0.00000671     -1573.5737561369 -4.65E-05
[...]
 flops    13 x    11 x    14           2008214208       0.0%    100.0%      0.0%
 flops   224 x    43 x   119           2860935168       0.0%    100.0%      0.0%
 flops   235 x    43 x   119           3001427520       0.0%    100.0%      0.0%
 flops   885 x    43 x   119           3006953880       0.0%    100.0%      0.0%
 flops   897 x    43 x   119           3047726136       0.0%    100.0%      0.0%
 flops   224 x    32 x    43           4968570880       0.0%    100.0%      0.0%
 flops   224 x    43 x    32           4968570880       0.0%    100.0%      0.0%
 flops   235 x    43 x    32           5212563200       0.0%    100.0%      0.0%
 flops   235 x    32 x    43           5212563200       0.0%    100.0%      0.0%
 flops    14 x    14 x    32           5239503360       0.0%    100.0%      0.0%
 flops   224 x    32 x   118           6861324288       0.0%    100.0%      0.0%
 flops    13 x    13 x    43           6935799208       0.0%    100.0%      0.0%
 flops    13 x    11 x    13           7111500396       0.0%    100.0%      0.0%
 flops   224 x    43 x   132           7140317184       0.0%    100.0%      0.0%
 flops   235 x    32 x   118           7198264320       0.0%    100.0%      0.0%
 flops   885 x    32 x   118           7211518080       0.0%    100.0%      0.0%
 flops   897 x    32 x   118           7309301376       0.0%    100.0%      0.0%
 flops   235 x    43 x   132           7490957760       0.0%    100.0%      0.0%
 flops   885 x    43 x   132           7504750440       0.0%    100.0%      0.0%
 flops   897 x    43 x   132           7606509768       0.0%    100.0%      0.0%
 flops   885 x    43 x    32          12253101120       0.0%    100.0%      0.0%
 flops   885 x    32 x    43          12253101120       0.0%    100.0%      0.0%
 flops   897 x    32 x    43          12419244864       0.0%    100.0%      0.0%
 flops   897 x    43 x    32          12419244864       0.0%    100.0%      0.0%
 flops    14 x    13 x    32          18765976320       0.0%    100.0%      0.0%
 flops    13 x    14 x    32          18765976320       0.0%    100.0%      0.0%
 flops    14 x    32 x    14          22020139008       0.0%    100.0%      0.0%
 flops   224 x    32 x   119          27677884416       0.0%    100.0%      0.0%
 flops   235 x    32 x   119          29037066240       0.0%    100.0%      0.0%
 flops   885 x    32 x   119          29090530560       0.0%    100.0%      0.0%
 flops   897 x    32 x   119          29484978432       0.0%    100.0%      0.0%
 flops   224 x    32 x    32          48068034560       0.0%    100.0%      0.0%
 flops   235 x    32 x    32          50428518400       0.0%    100.0%      0.0%
 flops    13 x    13 x    32          67099824896       0.0%    100.0%      0.0%
 flops   224 x    32 x   132          69078417408       0.0%    100.0%      0.0%
 flops   235 x    32 x   132          72470661120       0.0%    100.0%      0.0%
 flops   885 x    32 x   132          72604097280       0.0%    100.0%      0.0%
 flops   897 x    32 x   132          73588559616       0.0%    100.0%      0.0%
 flops    14 x    32 x    13          81789087744       0.0%    100.0%      0.0%
 flops    13 x    32 x    14          81789087744       0.0%    100.0%      0.0%
 flops   885 x    32 x    32         118541629440       0.0%    100.0%      0.0%
 flops   897 x    32 x    32         120148973568       0.0%    100.0%      0.0%
 flops    13 x    32 x    13         289632016128       0.0%    100.0%      0.0%
 flops inhomo. stacks                           0       0.0%      0.0%      0.0%
 flops total                         1.495056E+12       0.0%    100.0%      0.0%
 flops max/rank                     69.008090E+09       0.0%    100.0%      0.0%
 matmuls inhomo. stacks                         0       0.0%      0.0%      0.0%
 matmuls total                           56776722       0.0%    100.0%      0.0%
 number of processed stacks                972064       0.0%    100.0%      0.0%
 average stack size                                     0.0      58.4       0.0
 marketing flops                     1.641912E+12
 -------------------------------------------------------------------------------
 # multiplications                           1667
 max memory usage/rank               1.175020E+09
 # max total images/rank                        7
 # max 3D layers                                1
 # MPI messages exchanged                  933520
 MPI messages size (bytes):
  total size                       169.146892E+09
  min size                           0.000000E+00
  max size                         947.232000E+03
  average size                     181.192578E+03
 MPI breakdown and total messages size (bytes):
             size <=      128                2968                        0
       128 < size <=     8192              170235               1394565120
      8192 < size <=    32768               69573               1592320984
     32768 < size <=   131072              311092              16561898144
    131072 < size <=  4194304              379652             149603441520
   4194304 < size <= 16777216                   0                        0
  16777216 < size                               0                        0
 -------------------------------------------------------------------------------

 *** WARNING in dbcsr_mm.F:294 :: Using a non-square number of MPI ranks ***
 *** might lead to poor performance. Used ranks: 28 Suggested: 25 49     ***

 -------------------------------------------------------------------------------
 -                                                                             -
 -                      DBCSR MESSAGE PASSING PERFORMANCE                      -
 -                                                                             -
 -------------------------------------------------------------------------------
 ROUTINE             CALLS      AVE VOLUME [Bytes]
 MP_Bcast               61                     12.
 MP_Allreduce         9147                     31.
 MP_Alltoall          5723                  32068.
 MP_ISend            84222                  77149.
 MP_IRecv            84554                  75523.
 -------------------------------------------------------------------------------

 -------------------------------------------------------------------------------
 -                                                                             -
 -                                GRID STATISTICS                              -
 -                                                                             -
 -------------------------------------------------------------------------------
 LP    KERNEL             BACKEND                              COUNT     PERCENT
 4     collocate ortho    REF                                9345249      49.88%
 4     integrate ortho    REF                                9003320      48.05%
 7     integrate ortho    REF                                 341929       1.82%
 0     collocate general  REF                                  22680       0.12%
 0     integrate general  REF                                  11340       0.06%
 3     integrate general  REF                                  11340       0.06%
 -------------------------------------------------------------------------------

 MEMORY| Estimated peak process memory [MiB]                                1134

 -------------------------------------------------------------------------------
 ----                             MULTIGRID INFO                            ----
 -------------------------------------------------------------------------------
 count for grid        1:           2827          cutoff [a.u.]          225.00
 count for grid        2:         266057          cutoff [a.u.]           75.00
 count for grid        3:         436161          cutoff [a.u.]           25.00
 count for grid        4:         246997          cutoff [a.u.]            8.33
 total gridlevel count  :         952042

 -------------------------------------------------------------------------------
 -                                                                             -
 -                         MESSAGE PASSING PERFORMANCE                         -
 -                                                                             -
 -------------------------------------------------------------------------------

 ROUTINE             CALLS      AVE VOLUME [Bytes]
 MP_Group               12
 MP_Bcast             4712                 154839.
 MP_Allreduce        11126                    815.
 MP_Sync               132
 MP_Alltoall          1606               27120864.
 MP_ISendRecv         8856                 152928.
 MP_Wait             21248
 MP_comm_split          60
 MP_ISend            11208                 605913.
 MP_IRecv            11208                 605913.
 MP_Recv                14                 456192.
 -------------------------------------------------------------------------------


 -------------------------------------------------------------------------------
 -                                                                             -
 -                           R E F E R E N C E S                               -
 -                                                                             -
 -------------------------------------------------------------------------------
 
 CP2K version 9.1, the CP2K developers group (2021).
 CP2K is freely available from https://www.cp2k.org/ .

 Kuehne,Thomas D.; Iannuzzi,Marcella; Del Ben,Mauro;
 Rybkin,Vladimir V.; Seewald,Patrick; Stein,Frederick; Laino,Teodoro;
 Khaliullin,Rustam Z.; Schuett,Ole; Schiffmann,Florian; Golze,Dorothea;
 Wilhelm,Jan; Chulkov,Sergey; Bani-Hashemian,Mohammad Hossein;
 Weber,Valery; Borstnik,Urban; Taillefumier,Mathieu;
 Jakobovits,Alice Shoshana; Lazzaro,Alfio; Pabst,Hans; Mueller,Tiziano;
 Schade,Robert; Guidon,Manuel; Andermatt,Samuel; Holmberg,Nico;
 Schenter,Gregory K.; Hehn,Anna; Bussy,Augustin; Belleflamme,Fabian;
 Tabacchi,Gloria; Gloess,Andreas; Lass,Michael; Bethune,Iain;
 Mundy,Christopher J.; Plessl,Christian; Watkins,Matt;
 VandeVondele,Joost; Krack,Matthias; Hutter,Juerg. 
 The Journal of Chemical Physics, 152 (19), (2020). 
 CP2K: An electronic structure and molecular dynamics software package -
 Quickstep: Efficient and accurate electronic structure calculations.
 https://doi.org/10.1063/5.0007045

 Schuett, Ole; Messmer, Peter; Hutter, Juerg; VandeVondele, Joost. 
 Electronic Structure Calculations on Graphics Processing Units, John
 Wiley & Sons, Ltd, 173-190 (2016). 
 GPU-Accelerated Sparse Matrix-Matrix Multiplication for
 Linear Scaling Density Functional Theory.
 https://doi.org/10.1002/9781118670712.ch8

 Heinecke, A; Henry, G; Hutchinson, M; Pabst, H. 
 Proceedings of Intl. Supercomputing Conference, 981-991 (2016). 
 LIBXSMM: Accelerating Small Matrix Multiplications
 by Runtime Code Generation.
 https://doi.org/10.1109/SC.2016.83

 Borstnik, U; VandeVondele, J; Weber, V; Hutter, J. 
 PARALLEL COMPUTING, 40 (5-6), 47-58 (2014). 
 Sparse matrix multiplication: The distributed block-compressed sparse
 row library.
 https://doi.org/10.1016/j.parco.2014.03.012

 Hutter, J; Iannuzzi, M; Schiffmann, F; VandeVondele, J. 
 WIREs Comput Mol Sci., 4 (1), 15-25 (2014). 
 CP2K: atomistic simulations of condensed matter systems.
 https://doi.org/10.1002/wcms.1159

 Marek, A; Blum, V; Johanni, R; Havu, V; Lang, B; Auckenthaler, T;
 Heinecke, A; Bungartz, H; Lederer, H. 
 Journal of Physics: Condensed Matter, 26 (21), (2014). 
 The ELPA library: scalable parallel eigenvalue solutions for
 electronic structure
 theory and computational science.
 https://doi.org/10.1088/0953-8984/26/21/213201

 VandeVondele, J; Hutter, J. 
 JOURNAL OF CHEMICAL PHYSICS, 127 (11), 114105 (2007). 
 Gaussian basis sets for accurate calculations on molecular systems in
 gas and condensed phases.
 https://doi.org/10.1063/1.2770708

 Kuhne, TD; Krack, M; Mohamed, FR; Parrinello, M. 
 PHYSICAL REVIEW LETTERS, 98 (6), 066401 (2007). 
 Efficient and accurate Car-Parrinello-like approach to
 Born-Oppenheimer molecular dynamics.
 https://doi.org/10.1103/PhysRevLett.98.066401

 Krack, M. 
 THEORETICAL CHEMISTRY ACCOUNTS, 114 (1-3), 145-152 (2005). 
 Pseudopotentials for H to Kr optimized for gradient-corrected
 exchange-correlation functionals.
 https://doi.org/10.1007/s00214-005-0655-y

 VandeVondele, J; Krack, M; Mohamed, F; Parrinello, M; Chassaing, T;
 Hutter, J. COMPUTER PHYSICS COMMUNICATIONS, 167 (2), 103-128 (2005). 
 QUICKSTEP: Fast and accurate density functional calculations using a
 mixed Gaussian and plane waves approach.
 https://doi.org/10.1016/j.cpc.2004.12.014

 Frigo, M; Johnson, SG. 
 PROCEEDINGS OF THE IEEE, 93 (2), 216-231 (2005). 
 The design and implementation of FFTW3.
 https://doi.org/10.1109/JPROC.2004.840301

 Kolafa, J. 
 JOURNAL OF COMPUTATIONAL CHEMISTRY, 25 (3), 335-342 (2004). 
 Time-reversible always stable predictor-corrector method for
 molecular dynamics of polarizable molecules.
 https://doi.org/10.1002/jcc.10385

 VandeVondele, J; Hutter, J. 
 JOURNAL OF CHEMICAL PHYSICS, 118 (10), 4365-4369 (2003). 
 An efficient orbital transformation method for electronic structure
 calculations.
 https://doi.org/10.1063/1.1543154

 Hartwigsen, C; Goedecker, S; Hutter, J. 
 PHYSICAL REVIEW B, 58 (7), 3641-3662 (1998). 
 Relativistic separable dual-space Gaussian pseudopotentials from H to Rn.
 https://doi.org/10.1103/PhysRevB.58.3641

 Lippert, G; Hutter, J; Parrinello, M. 
 MOLECULAR PHYSICS, 92 (3), 477-487 (1997). 
 A hybrid Gaussian and plane wave density functional scheme.
 https://doi.org/10.1080/002689797170220

 Perdew, JP; Burke, K; Ernzerhof, M. 
 PHYSICAL REVIEW LETTERS, 77 (18), 3865-3868 (1996). 
 Generalized gradient approximation made simple.
 https://doi.org/10.1103/PhysRevLett.77.3865

 Goedecker, S; Teter, M; Hutter, J. 
 PHYSICAL REVIEW B, 54 (3), 1703-1710 (1996). 
 Separable dual-space Gaussian pseudopotentials.
 https://doi.org/10.1103/PhysRevB.54.1703

 NOSE, S. JOURNAL OF CHEMICAL PHYSICS, 81 (1), 511-519 (1984). 
 A UNIFIED FORMULATION OF THE CONSTANT TEMPERATURE MOLECULAR-DYNAMICS
 METHODS.
 https://doi.org/10.1063/1.447334

 NOSE, S. MOLECULAR PHYSICS, 52 (2), 255-268 (1984). 
 A MOLECULAR-DYNAMICS METHOD FOR SIMULATIONS IN THE CANONICAL ENSEMBLE.
 https://doi.org/10.1080/00268978400101201


 -------------------------------------------------------------------------------
 -                                                                             -
 -                                T I M I N G                                  -
 -                                                                             -
 -------------------------------------------------------------------------------
 SUBROUTINE                       CALLS  ASD         SELF TIME        TOTAL TIME
                                MAXIMUM       AVERAGE  MAXIMUM  AVERAGE  MAXIMUM
 CP2K                                 1  1.0    0.020    0.040  209.681  209.688
 qs_mol_dyn_low                       1  2.0    0.007    0.007  208.925  208.928
 qs_forces                            3  3.7    0.001    0.001  208.818  208.818
 qs_energies                          3  4.7    0.001    0.001  195.869  195.870
 scf_env_do_scf                       3  5.7    0.000    0.003  189.707  189.707
 scf_env_do_scf_inner_loop           79  6.1    0.002    0.020  181.680  181.779
 rebuild_ks_matrix                   82  8.0    0.000    0.000  141.749  141.843
 qs_ks_build_kohn_sham_matrix        82  9.0    0.011    0.012  141.749  141.843
 qs_ks_update_qs_env                 83  7.1    0.001    0.001  133.592  133.683
 pw_transfer                       1561 11.7    0.128    0.151   79.416   81.348
 fft_wrap_pw1pw2                   1397 12.8    0.012    0.014   78.470   80.413
 qs_vxc_create                       82 10.0    0.002    0.002   78.597   78.786
 xc_vxc_pw_create                    82 11.0    2.367    2.669   78.595   78.784
 fft_wrap_pw1pw2_230                905 13.9    5.991    6.345   75.163   77.159
 fft3d_ps                          1397 14.8   31.606   34.141   60.403   62.856
 sum_up_and_integrate                82 10.0    0.478    0.512   50.922   50.937
 integrate_v_rspace                  82 11.0    0.002    0.003   50.444   50.475
 qs_rho_update_rho                   82  7.2    0.000    0.001   44.830   44.837
 calculate_rho_elec                  82  8.2    0.385    0.411   44.830   44.836
 xc_rho_set_and_dset_create          82 12.0    0.490    0.513   42.441   43.640
 velocity_verlet                      2  3.0    0.001    0.004   34.557   34.558
 rs_pw_transfer                     668 11.5    0.007    0.009   30.943   31.441
 potential_pw2rs                     82 12.0    0.060    0.064   28.148   28.181
 density_rs2pw                       82  9.2    0.004    0.005   25.443   25.974
 grid_integrate_task_list            82 12.0   20.448   20.985   20.448   20.985
 grid_collocate_task_list            82  9.2   18.571   19.200   18.571   19.200
 xc_functional_eval                  82 13.0    0.001    0.001   16.749   17.970
 pbe_lda_eval                        82 14.0   16.748   17.969   16.748   17.969
 x_to_yz                            738 16.3    9.122    9.593   16.316   17.914
 mp_alltoall_z22v                  1397 16.8   14.967   17.842   14.967   17.842
 rs_pw_transfer_PW2RS_230            88 13.8    4.791    4.885   15.508   15.587
 yz_to_x                            659 15.2    4.661    4.908   12.434   14.570
 qs_scf_new_mos                      79  7.1    0.000    0.001   12.225   12.278
 qs_scf_loop_do_ot                   79  8.1    0.001    0.001   12.224   12.278
 dbcsr_multiply_generic            1667 12.2    0.092    0.098   11.800   11.878
 ot_scf_mini                         79  9.1    0.002    0.002   11.414   11.453
 rs_grid_zero                       176 14.7   10.515   10.790   10.515   10.790
 qs_ks_update_qs_env_forces           3  4.7    0.000    0.000    8.198    8.200
 rs_pw_transfer_RS2PW_230            88 11.1    4.758    4.907    7.666    8.182
 init_scf_loop                        4  6.5    0.000    0.000    7.917    7.917
 pw_derive                          501 12.5    7.725    7.866    7.725    7.866
 multiply_cannon                   1667 13.2    0.157    0.171    7.130    7.399
 mp_waitany                       11208 13.5    6.571    7.205    6.571    7.205
 multiply_cannon_loop              1667 14.2    0.154    0.206    6.211    6.645
 ot_mini                             79 10.1    0.001    0.001    6.597    6.640
 pw_scatter_p                       738 15.3    6.123    6.242    6.123    6.242
 pw_gather_p                        659 14.2    5.693    5.832    5.693    5.832
 qs_ot_get_derivative                79 11.1    0.001    0.001    4.786    4.828
 build_core_hamiltonian_matrix_       3  4.7    0.000    0.000    3.992    4.271
 rs_pw_transfer_PW2RS_80             82 14.0    0.914    0.999    4.104    4.232
 -------------------------------------------------------------------------------

 The number of warnings for this run is : 1
 
 -------------------------------------------------------------------------------
  **** **** ******  **  PROGRAM ENDED AT                 2024-06-25 10:15:19.274
 ***** ** ***  *** **   PROGRAM RAN ON                                       m02
 **    ****   ******    PROGRAM RAN BY                                       qji
 ***** **    ** ** **   PROGRAM PROCESS ID                                 48132
  **** **  *******  **  PROGRAM STOPPED IN /home/qji/workspace/jiqun/work/ML-pot
                                           ential/CsPbI3/cp2k-plumed/test_2023.1
                                           2.19/xrd-test/LDA/2024.5.17/head_400_
                                           hlda/5test_100-110_2DCV/data-deepmd/c
                                           p2k-data
