     135
 i =        0, time =        0.000, E =     -1573.5743947045
  I         2.2799999546       19.0470005306        5.1919998879
  I        19.9429999802        2.2230000012       15.9199992414
  I         1.7869999774        4.2870001889       20.7569999888
  I         1.8760000194       11.0640004006        3.5269997504
  I         0.4139999773       11.1709987432       11.2499996852
  I         1.5739999865        6.4029995237       14.3469995501
  I         0.5759999438       17.0020004670        1.3129999776
  I         3.0220000827       15.2810002108       11.0229994344
  I        18.0629995964        9.8509995672       17.0049989869
  I         6.7489996709        1.6080000376        3.2520001096
  I        12.3409989620       16.1620008220        4.3359997275
  I         3.3099998557        3.3539999699       16.9950001800
  I         6.9069996708        1.2690000099       19.7489996528
  I         6.2189998664        7.1119995610        7.7909994300
  I         0.4869999645        9.4770001353       20.8819994164
  I        10.6359995353        8.7679994700        1.2020000145
  I         9.3470000482       12.4870005276       14.2869992136
  I         5.6829999027       15.1889994506       13.8570005841
  I        14.2229996222       18.8239995555        1.9659998962
  I        18.8279988312       20.5610006411        9.6839996529
  I         7.8590001812        1.3580000730       15.3579996413
  I        15.7279991903       10.2159990848        8.7889990749
  I        11.6009998639        3.6470000885       14.5619994824
  I        12.1849998456        9.6909999399       15.7949998138
  I        17.5919987447       11.2939991714        1.5189999955
  I        17.4129997470       14.5830003643       11.5989996085
  I        12.0289994940       13.1909999053       20.3789993970
  I        14.9949991441        3.0150001098       17.9169992870
  I        20.8659985869        1.7689999601        6.6529996558
  I         3.1679997641        7.3800001709       10.0670002763
  I        17.2079998568        6.0670000258       19.7879991283
  I        20.8179998250       15.9339998153        7.6849999799
  I         0.8459999508       10.2409998495       15.7469997958
  I         2.0889998638       20.7059989596       20.6299990288
  I         6.0300001986       17.8169987401        7.5489997335
  I         1.7819999458       20.0929995654       14.6309991262
  I         5.5170001162       17.6319989551        0.7639999654
  I        11.4639988618        1.2660000036        4.4469998371
  I         4.2399996915        2.5380000199       12.4709996772
  I         6.8519999938       10.8069999815        2.1209999735
  I         9.8799996078       14.2779999272        8.7150000485
  I         7.3289997697        5.4489999930        1.6100000000
  I         8.2689999616       18.1480000697        3.6519998060
  I        13.3779999457       15.8659996922       11.1459998626
  I         7.5839999124       18.4319983897       16.1079987815
  I        13.6059996962        3.4089999609        0.9819999669
  I        17.7380002893        8.0939996116        5.1249998924
  I        12.4209994037        2.9360001098        8.9239998216
  I        11.9110003326        6.5240003035       19.0609998485
  I        11.5839995348        9.2489991287        7.1999997893
  I         8.3419994883       10.0200003860       18.1799992373
  I        16.1159985891       14.1000004292       19.3819998798
  I        15.8529998740       15.8319990130        7.3949996165
  I        11.7869991486       19.8059989781       16.7830000237
  I        20.7649985194        5.0469997062        3.7690000749
  I         2.4300000003       19.6879998166        9.4319998934
  I        18.5589993288        0.4499999908       20.0890002897
  I         4.4060001061        4.9809998384        4.2559998929
  I         8.3359999570       10.1370000269        9.6289993479
  I         5.2109998654       10.0379996077       13.1989997129
  I         2.7309999056       13.3379997144       20.4239996389
  I         4.2159999965       13.0649997219        7.5739998702
  I         9.8919999263       16.9019999201       12.9589996229
  I        10.4459997397       19.8110002448        0.5129999987
  I        14.0730000370        4.7369998656        5.0279997287
  I         8.8319996894       20.2399993746       10.9610000776
  I         4.6629998972        8.2149997843       19.3109999806
  I        14.0959999183       11.0049995847        3.8410001019
  I         8.7659998217        5.8069998515       10.8290003631
  I        16.4309990683       14.5880003749        2.5680000416
  I        11.8889999719       15.4480001461       16.4699985439
  I         8.0559996567       14.7580000653       18.6699994384
  I        17.3560004217        3.2219999414        3.0539998784
  I        18.3570004708       19.7089994424        4.2399996915
  I        18.1259984320       18.6909990642       16.1519995237
  I        14.6369999135        9.3889998860       19.7250002719
  I         0.0769999957       10.6359995353        7.4289996885
  I        12.9619993990       20.7469986697       12.3260001235
  I         0.9699999624       16.7909998104       17.6179996372
  I        13.3319989480       11.7199997812       11.8899994716
  I        17.8419988768        8.5829996850       12.6959996726
 Cs        20.4749994330        1.4809998731        2.1419998924
 Cs         4.5739998551        0.2359999978        6.6889999624
 Cs        20.6699992601        5.8079999793       17.7940000940
 Cs         3.0279999280        9.0760002903        6.6649999743
 Cs         6.3489999745       13.3979988157       10.6229997171
 Cs        19.9979990291       12.9139993810       20.0039998164
 Cs         2.9249999190       15.4059996593        4.3130001602
 Cs         5.1750001659       18.8330000979       12.3479992490
 Cs         4.8139999241       20.2339985873       17.5839989371
 Cs        10.5279992017        2.6259999552       18.3479986722
 Cs        13.6049989614        7.1659997382        1.8709999879
 Cs         5.4930001072        5.0679996460       14.9880000922
 Cs        10.2279994033       11.2720000459        4.2360001017
 Cs        11.1339995441        8.6630001267       11.4849997228
 Cs         5.2820000786       12.2270003324       17.1690004022
 Cs        18.3929989141       17.8229995064        0.1290000013
 Cs         9.7729994019        5.6629997976        7.3169994511
 Cs        12.2689995631       16.7469990682       19.8560005076
 Cs        17.4459984352        3.2449998017        6.5519995883
 Cs        10.2760000493       17.8539991953        8.7809999163
 Cs        14.8479993140        0.1709999856       15.3789992461
 Cs        18.6349992596        7.7589996343        1.8200000682
 Cs        19.9729988924        7.8920001255        9.6809992697
 Cs        14.3729991865        6.5370001217       16.1139995688
 Cs        17.2949993504       11.9219998953        5.2630000802
 Cs        19.6860008172       17.0489997292       10.9499992797
 Cs        14.5699992900       12.3079990386       15.7159988718
 Pb        16.8159999471        3.3599998152       20.5729997245
 Pb        20.1769992829       19.8539989961        7.0509997248
 Pb        20.5859995427       20.3129995293       17.3920001212
 Pb         2.1800000148        5.8879997929        2.2750000696
 Pb         1.3300000136       13.4109998691        8.8999991845
 Pb         2.1229999149        9.0769991829       12.7209998093
 Pb         2.7460000002       17.6609983676       20.1410008186
 Pb         2.9909997867       17.1970002941        8.2799995243
 Pb        19.0329999566       10.8839994120       14.5509986845
 Pb         7.4289996885       19.8290000945        1.4579998453
 Pb        11.1300002683       19.0719994112        3.3849999519
 Pb         1.6159999918        2.4619997960       14.0699990258
 Pb         3.1459996966       10.5469998072        0.7719999824
 Pb         5.4450000892        3.2629999655        0.9579999579
 Pb         6.3979994922        7.8739996478       10.5530005736
 Pb         7.3639999485        8.5790004093        0.0549999910
 Pb        11.0299997214       14.1809991355       11.6619997001
 Pb         8.2189996881       15.4389995827       15.2460000110
 Pb        14.2889994900        1.9149999556        3.4430000330
 Pb        15.3939993407       16.7500000794        4.2550000792
 Pb        10.2309998074       20.0839990230       14.4839993171
 Pb        11.5229996986        9.3919996621       18.9959995013
 Pb        14.6319998820        9.0410000905        6.2139998558
 Pb        10.9350004412        2.2249997961       11.7620002680
 Pb        14.9989996550       11.9629996263        0.1929999904
 Pb        15.3779997465       13.4769997368        9.6169996575
 Pb        10.2099995535       12.8449997581       17.6520003164
     135
 i =        1, time =        1.000, E =     -1573.5744431736
  I         2.2838128257       19.0432062877        5.1931814896
  I        19.9456725951        2.2214311986       15.9198013735
  I         1.7881762963        4.2854018541       20.7586889851
  I         1.8759576546       11.0621134864        3.5285299017
  I         0.4110578242       11.1682041468       11.2480015991
  I         1.5717055453        6.4045482494       14.3444961963
  I         0.5756317336       17.0051187826        1.3116961389
  I         3.0210343121       15.2834967070       11.0211624668
  I        18.0635466954        9.8498730246       17.0066579522
  I         6.7487159063        1.6086506771        3.2495204083
  I        12.3390228042       16.1607480095        4.3376078615
  I         3.3095788270        3.3573308573       16.9942674308
  I         6.9105145862        1.2701357340       19.7486613981
  I         6.2185539985        7.1087862274        7.7927952959
  I         0.4863580014        9.4773407465       20.8817260137
  I        10.6366043169        8.7676347427        1.2015625382
  I         9.3452593299       12.4881507233       14.2872881853
  I         5.6838751893       15.1880227542       13.8604031124
  I        14.2201069028       18.8231214331        1.9650935886
  I        18.8299654831       20.5600431005        9.6824348440
  I         7.8531987650        1.3574369342       15.3575741469
  I        15.7251655220       10.2170751762        8.7873399010
  I        11.6033610185        3.6487925171       14.5638545257
  I        12.1854414363        9.6875360671       15.7951958091
  I        17.5918582008       11.2935498425        1.5189997953
  I        17.4088638024       14.5818115058       11.5996408261
  I        12.0259059989       13.1904146213       20.3772522054
  I        14.9941009757        3.0173631177       17.9179529317
  I        20.8636498029        1.7700885297        6.6546678544
  I         3.1718542180        7.3818618021       10.0688967017
  I        17.2078484065        6.0648943686       19.7855921163
  I        20.8206952205       15.9346021182        7.6833077941
  I         0.8435364263       10.2383505413       15.7465399066
  I         2.0855413218       20.7065843041       20.6280743477
  I         6.0287924023       17.8196088759        7.5496811264
  I         1.7819677571       20.0914288677       14.6302040490
  I         5.5138223193       17.6309988440        0.7642338737
  I        11.4637987037        1.2661733505        4.4436451191
  I         4.2387922379        2.5357602133       12.4692928534
  I         6.8505816244       10.8055299903        2.1200885929
  I         9.8800504556       14.2760404819        8.7143956233
  I         7.3254186482        5.4454837987        1.6097535831
  I         8.2680706917       18.1460481039        3.6499352135
  I        13.3785662372       15.8657102538       11.1414111939
  I         7.5845852754       18.4339485318       16.1071773240
  I        13.6023218264        3.4083135943        0.9811838570
  I        17.7383772885        8.0926138707        5.1253977662
  I        12.4215086552        2.9357259794        8.9234789453
  I        11.9126563408        6.5216347564       19.0622939182
  I        11.5844934413        9.2526329721        7.2016089790
  I         8.3417339895       10.0197070028       18.1795336010
  I        16.1121730624       14.0987325952       19.3776758497
  I        15.8505982612       15.8293316597        7.3942087054
  I        11.7888810881       19.8045882762       16.7811431735
  I        20.7675075354        5.0458143001        3.7714352990
  I         2.4303110851       19.6867949082        9.4342649771
  I        18.5587147788        0.4490658147       20.0872480527
  I         4.4048039059        4.9820859597        4.2578869273
  I         8.3365477692       10.1343388520        9.6287745461
  I         5.2103710994       10.0378258753       13.1975919395
  I         2.7328589529       13.3357261108       20.4245241070
  I         4.2139374711       13.0661405056        7.5709116476
  I         9.8917363913       16.8994835785       12.9609401743
  I        10.4440368320       19.8114886223        0.5154019574
  I        14.0747330766        4.7381392283        5.0308832899
  I         8.8325730430       20.2394621850       10.9608023466
  I         4.6647395830        8.2151572621       19.3054519593
  I        14.0967269928       11.0062724232        3.8451806077
  I         8.7654089324        5.8048542689       10.8274374002
  I        16.4313963181       14.5837997366        2.5691423408
  I        11.8871255007       15.4499675898       16.4675860434
  I         8.0539234493       14.7560391026       18.6681271602
  I        17.3535874581        3.2182023817        3.0530657137
  I        18.3541813305       19.7050910045        4.2433807893
  I        18.1239357353       18.6902230276       16.1483222436
  I        14.6370171694        9.3878816673       19.7216713111
  I         0.0773308284       10.6394791744        7.4275180249
  I        12.9603361148       20.7476331600       12.3291565840
  I         0.9661446795       16.7909535325       17.6151562360
  I        13.3310430884       11.7159660422       11.8892973947
  I        17.8399046007        8.5848434561       12.6970263153
 Cs        20.4720227602        1.4801158686        2.1408553795
 Cs         4.5730188586        0.2369017151        6.6904907771
 Cs        20.6687430673        5.8107052750       17.7927776835
 Cs         3.0294712221        9.0739943208        6.6657848771
 Cs         6.3519122113       13.3994338898       10.6204266240
 Cs        19.9964895749       12.9144403187       20.0024726180
 Cs         2.9235682322       15.4051483300        4.3107192510
 Cs         5.1756523820       18.8323478014       12.3474921955
 Cs         4.8130409831       20.2330295730       17.5793264862
 Cs        10.5268188279        2.6270971612       18.3452344239
 Cs        13.6023268988        7.1660123640        1.8734203185
 Cs         5.4934354664        5.0681739174       14.9867922586
 Cs        10.2289874374       11.2723413947        4.2329315372
 Cs        11.1341998042        8.6639012945       11.4827125691
 Cs         5.2815892903       12.2275201651       17.1681074476
 Cs        18.3920409696       17.8202898199        0.1293176976
 Cs         9.7704013140        5.6610530237        7.3157688126
 Cs        12.2704688109       16.7446294117       19.8542585181
 Cs        17.4456161752        3.2426997487        6.5509347089
 Cs        10.2762551736       17.8523848434        8.7803420163
 Cs        14.8525575742        0.1727763505       15.3782789484
 Cs        18.6308328663        7.7595673423        1.8226732545
 Cs        19.9738925214        7.8876388512        9.6831370300
 Cs        14.3692235465        6.5385732641       16.1128550178
 Cs        17.2938347365       11.9214630377        5.2642251513
 Cs        19.6873276377       17.0472653170       10.9515936702
 Cs        14.5713340972       12.3048327284       15.7142335828
 Pb        16.8173102025        3.3618662202       20.5731245810
 Pb        20.1717921505       19.8519427299        7.0505631065
 Pb        20.5855591311       20.3116099034       17.3925753599
 Pb         2.1764489786        5.8893705712        2.2715335468
 Pb         1.3311707475       13.4099996359        8.8973289224
 Pb         2.1229009097        9.0749320551       12.7198079826
 Pb         2.7469310713       17.6613845014       20.1403511900
 Pb         2.9907844456       17.1971494980        8.2769364687
 Pb        19.0342324283       10.8820457995       14.5507030176
 Pb         7.4292394879       19.8272254221        1.4588298641
 Pb        11.1292945038       19.0695148927        3.3854571611
 Pb         1.6161174732        2.4603543476       14.0689816254
 Pb         3.1465363419       10.5492252090        0.7708589505
 Pb         5.4434519765        3.2632036553        0.9569800801
 Pb         6.3994719234        7.8728551292       10.5542511712
 Pb         7.3621408893        8.5763535676        0.0532474701
 Pb        11.0301645792       14.1797837240       11.6616952847
 Pb         8.2202710822       15.4359641019       15.2435923556
 Pb        14.2875512609        1.9131182761        3.4438500398
 Pb        15.3915617051       16.7513578486        4.2549905754
 Pb        10.2302838966       20.0824327634       14.4831700476
 Pb        11.5254276463        9.3931294887       18.9933812601
 Pb        14.6307496383        9.0420891985        6.2151102206
 Pb        10.9340839543        2.2251628564       11.7610751030
 Pb        14.9967262575       11.9615710429        0.1944097200
 Pb        15.3769051940       13.4772951146        9.6164301959
 Pb        10.2103316366       12.8467081918       17.6513080531
     135
 i =        2, time =        2.000, E =     -1573.5745211048
  I         2.2875985034       19.0393921534        5.1943746792
  I        19.9483321326        2.2198483205       15.9196420338
  I         1.7893595298        4.2837788341       20.7603874849
  I         1.8759294097       11.0602432635        3.5300516275
  I         0.4081039450       11.1654480652       11.2460246461
  I         1.5694127383        6.4060740247       14.3419973229
  I         0.5753159036       17.0082254750        1.3104011839
  I         3.0200446413       15.2860200696       11.0193177906
  I        18.0640576529        9.8487384356       17.0083774810
  I         6.7484303580        1.6092892725        3.2470364328
  I        12.3370449677       16.1594928647        4.3392279356
  I         3.3091089704        3.3606197308       16.9935275211
  I         6.9140383552        1.2713003359       19.7483710874
  I         6.2181154995        7.1055583118        7.7945171173
  I         0.4857053113        9.4776663063       20.8814447460
  I        10.6371750387        8.7673040612        1.2011218079
  I         9.3435175589       12.4893077740       14.2876043389
  I         5.6847076687       15.1870498782       13.8638074253
  I        14.2172357010       18.8222682091        1.9641879419
  I        18.8319310204       20.5590954336        9.6808756352
  I         7.8474371935        1.3568735378       15.3571562915
  I        15.7223579590       10.2181634232        8.7856754806
  I        11.6057417761        3.6505849164       14.5657040380
  I        12.1858775546        9.6840634355       15.7954181191
  I        17.5917788870       11.2930764690        1.5189972086
  I        17.4047110675       14.5805814568       11.6002908302
  I        12.0227917562       13.1898076760       20.3755126273
  I        14.9932207687        3.0197300115       17.9189302855
  I        20.8613308284        1.7711853484        6.6563291716
  I         3.1756611665        7.3837391458       10.0708302786
  I        17.2077235472        6.0628627968       19.7831734429
  I        20.8234029764       15.9352087977        7.6815975919
  I         0.8410802987       10.2357175380       15.7460675101
  I         2.0820990243       20.7071547698       20.6261319766
  I         6.0275809836       17.8222179002        7.5503816437
  I         1.7819295270       20.0899040752       14.6294345160
  I         5.5106404332       17.6299759125        0.7644636543
  I        11.4635878259        1.2663265008        4.4402956610
  I         4.2375765047        2.5335140907       12.4675946660
  I         6.8491529315       10.8040537647        2.1191616275
  I         9.8801054871       14.2740753404        8.7138172532
  I         7.3218711376        5.4419956196        1.6094815435
  I         8.2671348514       18.1440535228        3.6479525592
  I        13.3791793601       15.8654390990       11.1368078022
  I         7.5851970555       18.4358975460       16.1063500333
  I        13.5986589460        3.4076280555        0.9803353623
  I        17.7387312939        8.0912397002        5.1258491361
  I        12.4219977366        2.9354539406        8.9230143216
  I        11.9143175241        6.5192193321       19.0635865706
  I        11.5850163022        9.2562560646        7.2032139930
  I         8.3414777665       10.0194148817       18.1790897245
  I        16.1083789117       14.0974860791       19.3733314689
  I        15.8482140389       15.8266521814        7.3934259964
  I        11.7908162541       19.8031853244       16.7793999632
  I        20.7700207408        5.0446340387        3.7738817259
  I         2.4305964279       19.6856676011        9.4365887683
  I        18.5584452676        0.4481425459       20.0854827359
  I         4.4035742014        4.9831647748        4.2597495358
  I         8.3370830386       10.1316933387        9.6285665485
  I         5.2097178862       10.0376539673       13.1961956057
  I         2.7347366016       13.3334570523       20.4250595709
  I         4.2118409790       13.0672927409        7.5678193808
  I         9.8914688222       16.8969719406       12.9628813767
  I        10.4420875815       19.8119956442        0.5177752083
  I        14.0764680691        4.7392610420        5.0337660313
  I         8.8331462944       20.2389861793       10.9606348317
  I         4.6664934674        8.2153352520       19.2999454057
  I        14.0974436280       11.0075367140        3.8493667811
  I         8.7648303930        5.8026997800       10.8259100957
  I        16.4318012863       14.5796317765        2.5702878355
  I        11.8852462695       15.4518989596       16.4651867380
  I         8.0518556666       14.7540704098       18.6662590201
  I        17.3511780389        3.2144121956        3.0520861917
  I        18.3513760965       19.7011931403        4.2467876541
  I        18.1219188037       18.6894895078       16.1446807123
  I        14.6370594809        9.3867393855       19.7183290358
  I         0.0776247977       10.6430106807        7.4260306901
  I        12.9586442337       20.7482991148       12.3323131248
  I         0.9622966485       16.7909475737       17.6123463483
  I        13.3301043231       11.7119660315       11.8885971952
  I        17.8378327961        8.5867093140       12.6980900422
 Cs        20.4690827733        1.4792218101        2.1397318550
 Cs         4.5720625482        0.2378360443        6.6919867175
 Cs        20.6675172268        5.8134162366       17.7915555904
 Cs         3.0309867720        9.0719844087        6.6665552312
 Cs         6.3548411771       13.4008613708       10.6178616278
 Cs        19.9949899355       12.9148902842       20.0009520247
 Cs         2.9221379142       15.4043011873        4.3084333113
 Cs         5.1763184316       18.8317209803       12.3469968901
 Cs         4.8120663840       20.2320949037       17.5746534405
 Cs        10.5256434496        2.6281885220       18.3424753048
 Cs        13.5996954266        7.1660078118        1.8758502769
 Cs         5.4938962204        5.0683673343       14.9855709923
 Cs        10.2299783732       11.2726933806        4.2298671964
 Cs        11.1344122720        8.6648110767       11.4804379339
 Cs         5.2811723479       12.2280424150       17.1672215811
 Cs        18.3910520063       17.8175956958        0.1296279448
 Cs         9.7678211542        5.6591055638        7.3145346857
 Cs        12.2719498652       16.7422893314       19.8525352175
 Cs        17.4452373215        3.2404054943        6.5499006112
 Cs        10.2765291028       17.8507892427        8.7796817601
 Cs        14.8571576898        0.1745590558       15.3775757672
 Cs        18.6267001661        7.7601316801        1.8253326626
 Cs        19.9747967251        7.8832890064        9.6852773823
 Cs        14.3654634998        6.5401408869       16.1117234087
 Cs        17.2927201335       11.9209510666        5.2654651053
 Cs        19.6886880560       17.0455844508       10.9532091285
 Cs        14.5726894631       12.3017030911       15.7124776945
 Pb        16.8185941009        3.3636733832       20.5732664446
 Pb        20.1666054825       19.8498957970        7.0501101151
 Pb        20.5851123037       20.3102268789       17.3931375628
 Pb         2.1729235709        5.8907728644        2.2680868311
 Pb         1.3323550661       13.4089785383        8.8946675963
 Pb         2.1228393263        9.0728627778       12.7186394467
 Pb         2.7478223037       17.6617849829       20.1397222955
 Pb         2.9905962073       17.1972738442        8.2738450903
 Pb        19.0354968077       10.8800962981       14.5503767752
 Pb         7.4294722290       19.8255215201        1.4596294326
 Pb        11.1286407549       19.0670580885        3.3859204310
 Pb         1.6162737679        2.4587103477       14.0679956638
 Pb         3.1470829490       10.5514630311        0.7697292707
 Pb         5.4419112820        3.2633943112        0.9559698448
 Pb         6.4009615778        7.8717294571       10.5555283173
 Pb         7.3602844717        8.5737144399        0.0514961342
 Pb        11.0303309233       14.1785592848       11.6613977215
 Pb         8.2215849608       15.4329585325       15.2412106389
 Pb        14.2861208778        1.9112562556        3.4447169668
 Pb        15.3891282287       16.7527497788        4.2549926238
 Pb        10.2295083675       20.0808879677       14.4822961121
 Pb        11.5278558669        9.3942846629       18.9907793308
 Pb        14.6294955622        9.0431660992        6.2162212458
 Pb        10.9331879885        2.2253132457       11.7601349192
 Pb        14.9944457157       11.9601831372        0.1958482816
 Pb        15.3758020716       13.4776241693        9.6158903756
 Pb        10.2106813889       12.8484458972       17.6506155987
