     135
 i =        0, time =        0.000, E =     -1573.5743947045
  I        -0.0065444530       -0.0089840888        0.0023476010
  I        -0.0059982418       -0.0043305775        0.0071339290
  I         0.0018079204       -0.0071753966       -0.0003405859
  I         0.0032384442        0.0020639415       -0.0023122681
  I        -0.0036805259        0.0075129029        0.0031171161
  I        -0.0002660085       -0.0065305198       -0.0017344359
  I         0.0131495487       -0.0051254501        0.0017185500
  I        -0.0069009349        0.0049093979       -0.0041973806
  I        -0.0121356071       -0.0039577552        0.0131208257
  I        -0.0016497616       -0.0031427793       -0.0022075982
  I        -0.0028986268       -0.0034926896        0.0026508913
  I        -0.0131096733       -0.0106530101       -0.0048122762
  I         0.0019361081        0.0075006152        0.0090409158
  I         0.0007821860       -0.0055225513       -0.0198696439
  I        -0.0029821618       -0.0053569726       -0.0055408450
  I        -0.0102581018        0.0071258413       -0.0010849255
  I        -0.0022097955        0.0000592927        0.0047560459
  I        -0.0114467248       -0.0016540063       -0.0009375062
  I         0.0025681972        0.0031201909       -0.0003556150
  I        -0.0028623058       -0.0010687406       -0.0006663924
  I         0.0077245264       -0.0004703191       -0.0006223328
  I         0.0034432027        0.0016032263       -0.0032615609
  I         0.0036250856       -0.0002075802       -0.0033515932
  I        -0.0032989946       -0.0046204818        0.0042634091
  I         0.0128659098       -0.0081242797       -0.0007755609
  I        -0.0081376600       -0.0133398627        0.0004308800
  I        -0.0079666641       -0.0077953796       -0.0018330279
  I         0.0019234553        0.0009983660        0.0033148005
  I         0.0037320825        0.0022354737       -0.0025220479
  I        -0.0118069535        0.0032284056        0.0082576381
  I         0.0038345976        0.0171146308       -0.0066700739
  I         0.0004024540       -0.0014008036       -0.0062194299
  I         0.0010424437        0.0020011158       -0.0059802478
  I         0.0030721627       -0.0070681814       -0.0082651455
  I        -0.0023269019       -0.0026926345        0.0037928113
  I        -0.0018718664        0.0081267119        0.0039836031
  I        -0.0026374496       -0.0089506324       -0.0012023880
  I        -0.0045263738       -0.0053323028       -0.0001295487
  I        -0.0031162551       -0.0025006346       -0.0001715408
  I        -0.0040561866       -0.0036232257       -0.0044702374
  I        -0.0005549678       -0.0042038103        0.0050790031
  I         0.0064918046        0.0053250301       -0.0069051408
  I        -0.0032624737       -0.0140646094        0.0197295863
  I         0.0100718398        0.0020923170       -0.0065593991
  I         0.0055411540       -0.0027317770       -0.0042605678
  I         0.0007458235       -0.0003858792       -0.0088789035
  I        -0.0087276807        0.0013190260        0.0127777979
  I        -0.0070830665        0.0000223371        0.0127997837
  I        -0.0002725884       -0.0146795406       -0.0032637580
  I         0.0056541261       -0.0035590113       -0.0019320227
  I         0.0008677297       -0.0014158929        0.0024696271
  I         0.0047208007        0.0030398221       -0.0094296843
  I         0.0013441501       -0.0063224566        0.0007945039
  I         0.0120287264       -0.0015971746        0.0260732936
  I        -0.0016309188        0.0003169248        0.0026759073
  I        -0.0069425424        0.0164802651        0.0139633442
  I         0.0007545757        0.0025779244       -0.0069836751
  I        -0.0094069559       -0.0025716764       -0.0064513717
  I        -0.0044735784        0.0017191723        0.0027155153
  I        -0.0072781010       -0.0012372358        0.0004509133
  I         0.0047638151       -0.0017272868       -0.0003652314
  I        -0.0099208333        0.0010013534       -0.0029098807
  I        -0.0028125524       -0.0021558140       -0.0013899718
  I         0.0012604188        0.0016268723       -0.0068735040
  I        -0.0014720028       -0.0049724552       -0.0004119238
  I        -0.0014149884        0.0122391532        0.0059027731
  I         0.0032516411        0.0039304472        0.0063546606
  I        -0.0047769946       -0.0038392104        0.0017872722
  I         0.0015013392       -0.0036177931        0.0069865738
  I        -0.0004869914        0.0047386143        0.0004070016
  I        -0.0035675732       -0.0113546061        0.0001494520
  I         0.0004167758       -0.0048349962       -0.0024299512
  I        -0.0025134748        0.0005544890       -0.0123447541
  I         0.0000664088       -0.0013183074        0.0066201105
  I         0.0082980131        0.0076254513        0.0057470595
  I         0.0038982442       -0.0080638442       -0.0074401535
  I        -0.0094563302        0.0123617776       -0.0029616998
  I        -0.0098110070        0.0047805386       -0.0013420932
  I         0.0008840442        0.0075235709        0.0050148199
  I         0.0020034917        0.0057869188       -0.0016511468
  I         0.0024122489        0.0046980033        0.0076778473
 Cs         0.0056414822       -0.0031377486        0.0049816772
 Cs         0.0056392321        0.0088007578        0.0005021337
 Cs         0.0042814604        0.0010575492       -0.0032502862
 Cs         0.0117586305       -0.0030701254       -0.0048933179
 Cs         0.0040875275       -0.0041021823       -0.0002012441
 Cs        -0.0011467378        0.0002910320       -0.0019820248
 Cs        -0.0004292242       -0.0016810403       -0.0025511239
 Cs         0.0029576386        0.0034414815        0.0009163834
 Cs        -0.0053000566        0.0053886838       -0.0042526479
 Cs        -0.0007258342       -0.0018065329       -0.0023554424
 Cs         0.0079099302       -0.0057608152        0.0027384311
 Cs         0.0059152300        0.0043162685       -0.0063985600
 Cs        -0.0007721291        0.0009872091       -0.0002242892
 Cs         0.0013891120        0.0011063822        0.0009042553
 Cs        -0.0026624935       -0.0013391708       -0.0012346191
 Cs        -0.0115906639        0.0005193846       -0.0018846982
 Cs         0.0025539694       -0.0015835698       -0.0024313282
 Cs         0.0013441088        0.0044609529        0.0012257257
 Cs        -0.0021431659        0.0004885508        0.0068922906
 Cs         0.0033361232        0.0015993469       -0.0022972854
 Cs         0.0096375879        0.0020227974        0.0017206391
 Cs         0.0049023760       -0.0020693602       -0.0032912852
 Cs        -0.0004516985        0.0007227838       -0.0004952787
 Cs         0.0008841433       -0.0021982264        0.0004604130
 Cs         0.0100760809        0.0044998499        0.0032882342
 Cs         0.0058973325        0.0111841007        0.0040876956
 Cs         0.0032519027        0.0070794310       -0.0005465503
 Pb        -0.0149681421       -0.0246746854        0.0015586470
 Pb         0.0012088317       -0.0022144987       -0.0088011698
 Pb        -0.0083478254       -0.0030588313       -0.0099571055
 Pb         0.0086449592        0.0118524816        0.0062194314
 Pb         0.0057809974       -0.0126612028        0.0003947423
 Pb         0.0150515630       -0.0042073778        0.0059809660
 Pb        -0.0169417566        0.0012604682        0.0032033091
 Pb         0.0104622715       -0.0151523645       -0.0151001697
 Pb         0.0088152588       -0.0019307794       -0.0168958836
 Pb        -0.0046561644        0.0234523306       -0.0126333650
 Pb         0.0185355990        0.0056030385        0.0017469825
 Pb         0.0157993455       -0.0005588368        0.0090775878
 Pb         0.0035346673        0.0033485755        0.0039518366
 Pb         0.0013046704       -0.0060373619        0.0035513510
 Pb         0.0059304019        0.0053950320        0.0086071162
 Pb        -0.0015324113       -0.0000020607       -0.0000945040
 Pb        -0.0024479724       -0.0080274321       -0.0003305723
 Pb         0.0158626287        0.0071474850        0.0056349264
 Pb         0.0031478280        0.0068884496        0.0066647473
 Pb        -0.0033308217        0.0105597710        0.0038819721
 Pb        -0.0278837211        0.0030398382       -0.0230146184
 Pb        -0.0020935127        0.0088264282        0.0007935701
 Pb        -0.0058956494       -0.0070069318       -0.0010157544
 Pb         0.0052996381       -0.0059283125       -0.0098457942
 Pb        -0.0079167872        0.0132992791        0.0126057505
 Pb        -0.0080023208        0.0105958897        0.0096613817
 Pb         0.0047995174        0.0093712827       -0.0050584107
     135
 i =        1, time =        1.000, E =     -1573.5744431736
  I        -0.0066069775       -0.0089608305        0.0023328029
  I        -0.0061308557       -0.0042682964        0.0071904302
  I         0.0016985507       -0.0073297118       -0.0006752044
  I         0.0032949097        0.0020827513       -0.0024464917
  I        -0.0036304702        0.0074758928        0.0031673635
  I        -0.0002798962       -0.0066346727       -0.0017017947
  I         0.0132373117       -0.0051878248        0.0018072817
  I        -0.0067990820        0.0048263493       -0.0041442784
  I        -0.0121275453       -0.0039014373        0.0130039269
  I        -0.0016256167       -0.0032232411       -0.0021042992
  I        -0.0028456660       -0.0035061143        0.0026457810
  I        -0.0131210684       -0.0106685878       -0.0047798718
  I         0.0017952631        0.0073962667        0.0089403059
  I         0.0007729714       -0.0055195572       -0.0198905036
  I        -0.0029478011       -0.0053520085       -0.0055146499
  I        -0.0103568181        0.0071932592       -0.0011147107
  I        -0.0021458774       -0.0000894468        0.0046499358
  I        -0.0117251109       -0.0017183525       -0.0011832141
  I         0.0026038244        0.0030932852       -0.0003287027
  I        -0.0030204414       -0.0010533227       -0.0004657138
  I         0.0077893908       -0.0003977909       -0.0006639471
  I         0.0035402617        0.0016279016       -0.0031112153
  I         0.0035500085       -0.0002678972       -0.0034670006
  I        -0.0033290595       -0.0045034801        0.0041611143
  I         0.0127339776       -0.0081040877       -0.0008616384
  I        -0.0079626454       -0.0131758879        0.0004543325
  I        -0.0078866457       -0.0078336590       -0.0017523224
  I         0.0019470151        0.0009472709        0.0032884783
  I         0.0037317710        0.0020262803       -0.0025414914
  I        -0.0119430812        0.0031564986        0.0082049369
  I         0.0039320793        0.0175522707       -0.0067125969
  I         0.0002378409       -0.0013976523       -0.0062026502
  I         0.0012826199        0.0019743630       -0.0058897059
  I         0.0031512074       -0.0071163162       -0.0083021985
  I        -0.0021536708       -0.0027297509        0.0037763132
  I        -0.0018464107        0.0081265063        0.0039671241
  I        -0.0025644519       -0.0089431391       -0.0011377289
  I        -0.0046751209       -0.0053439169       -0.0000292196
  I        -0.0030495170       -0.0024629695       -0.0001763563
  I        -0.0040443219       -0.0036613162       -0.0045121701
  I        -0.0005520809       -0.0041904861        0.0051116382
  I         0.0067057439        0.0055969443       -0.0068692588
  I        -0.0032247493       -0.0142751582        0.0199684769
  I         0.0098808828        0.0020017905       -0.0064846944
  I         0.0056182379       -0.0029615905       -0.0043106456
  I         0.0008854578       -0.0004824360       -0.0086044711
  I        -0.0087421191        0.0013587933        0.0129175735
  I        -0.0071158965       -0.0000022094        0.0128198559
  I        -0.0003275758       -0.0142917473       -0.0032647942
  I         0.0055891988       -0.0035852629       -0.0019508227
  I         0.0009445511       -0.0013885124        0.0024753003
  I         0.0046354930        0.0028832086       -0.0092348546
  I         0.0013721798       -0.0062273474        0.0007259413
  I         0.0120312233       -0.0015584628        0.0259503779
  I        -0.0018797742        0.0002562622        0.0027086844
  I        -0.0069288391        0.0163734949        0.0138958765
  I         0.0007275286        0.0025382310       -0.0070002835
  I        -0.0095291884       -0.0024850405       -0.0065929259
  I        -0.0044820351        0.0018246454        0.0026660224
  I        -0.0072364100       -0.0012247385        0.0004777045
  I         0.0046632962       -0.0014746534       -0.0004606421
  I        -0.0097814828        0.0009894375       -0.0028756406
  I        -0.0027168222       -0.0020692227       -0.0016040137
  I         0.0013939907        0.0015908052       -0.0069718529
  I        -0.0014945038       -0.0050554728       -0.0004900054
  I        -0.0013758729        0.0122089545        0.0058828931
  I         0.0031947345        0.0039213722        0.0063610394
  I        -0.0048612338       -0.0037623394        0.0016136304
  I         0.0015989379       -0.0036478638        0.0070366451
  I        -0.0006638271        0.0051495371        0.0006114535
  I        -0.0035400147       -0.0114070484        0.0001947092
  I         0.0004283891       -0.0047904952       -0.0023831304
  I        -0.0024211539        0.0006294696       -0.0122886854
  I        -0.0000127126       -0.0012967173        0.0065380726
  I         0.0083217428        0.0076428367        0.0057767399
  I         0.0039961609       -0.0079218038       -0.0073011914
  I        -0.0093820218        0.0121785803       -0.0029613287
  I        -0.0097762582        0.0047443802       -0.0014133568
  I         0.0009594041        0.0075337172        0.0051217779
  I         0.0019889149        0.0059238897       -0.0016180445
  I         0.0024023579        0.0045854046        0.0075873750
 Cs         0.0056930774       -0.0031271797        0.0050249127
 Cs         0.0056276965        0.0088785964        0.0005142093
 Cs         0.0043060504        0.0010542121       -0.0032381897
 Cs         0.0116296758       -0.0030279412       -0.0048949980
 Cs         0.0039666297       -0.0040660844       -0.0001827063
 Cs        -0.0011318384        0.0002729200       -0.0019965027
 Cs        -0.0004255200       -0.0017139344       -0.0025503060
 Cs         0.0029419956        0.0034377811        0.0009102756
 Cs        -0.0052206362        0.0055088359       -0.0041359721
 Cs        -0.0007188903       -0.0018013755       -0.0023528088
 Cs         0.0079889949       -0.0058406543        0.0027401575
 Cs         0.0059417531        0.0042884829       -0.0064344211
 Cs        -0.0007946256        0.0009683462       -0.0002145569
 Cs         0.0013849186        0.0009896935        0.0009101563
 Cs        -0.0026451826       -0.0013639338       -0.0012497982
 Cs        -0.0116862481        0.0005447945       -0.0019549719
 Cs         0.0025938805       -0.0015528845       -0.0024468546
 Cs         0.0013347247        0.0045542324        0.0012242786
 Cs        -0.0021822472        0.0005325698        0.0069021828
 Cs         0.0033122375        0.0016128717       -0.0022823030
 Cs         0.0095583616        0.0020246203        0.0017818490
 Cs         0.0049715866       -0.0021321678       -0.0034727089
 Cs        -0.0004434595        0.0008254231       -0.0005530834
 Cs         0.0009368716       -0.0022957038        0.0004511326
 Cs         0.0101763641        0.0044987788        0.0033225396
 Cs         0.0058624018        0.0110522960        0.0040697325
 Cs         0.0032550969        0.0070647767       -0.0005530376
 Pb        -0.0151389842       -0.0250744224        0.0015945109
 Pb         0.0014838008       -0.0020972641       -0.0088783224
 Pb        -0.0083706867       -0.0031546274       -0.0099581918
 Pb         0.0090120511        0.0120050965        0.0065808184
 Pb         0.0056814592       -0.0126459639        0.0005001702
 Pb         0.0150303271       -0.0039907869        0.0059273905
 Pb        -0.0170941365        0.0013503697        0.0030266969
 Pb         0.0104488898       -0.0149772948       -0.0150207351
 Pb         0.0085801781       -0.0018273967       -0.0167908943
 Pb        -0.0048779696        0.0236640781       -0.0128559099
 Pb         0.0185085006        0.0056592906        0.0017613814
 Pb         0.0158158521       -0.0005718097        0.0090218042
 Pb         0.0034804334        0.0030374207        0.0041787098
 Pb         0.0011477779       -0.0062618821        0.0034521142
 Pb         0.0059284609        0.0053927901        0.0086344210
 Pb        -0.0014622303        0.0000836085       -0.0000660196
 Pb        -0.0023030293       -0.0079756534       -0.0003779884
 Pb         0.0159281531        0.0073854763        0.0059734675
 Pb         0.0031497919        0.0071099876        0.0064050110
 Pb        -0.0031746408        0.0101764241        0.0036754171
 Pb        -0.0278899067        0.0030612587       -0.0228258187
 Pb        -0.0022375665        0.0084082521        0.0008745315
 Pb        -0.0059377311       -0.0071992338       -0.0010542173
 Pb         0.0053378541       -0.0058429698       -0.0097356431
 Pb        -0.0077392589        0.0133217987        0.0124325753
 Pb        -0.0080696684        0.0105260059        0.0096116373
 Pb         0.0047311405        0.0092964800       -0.0050571898
     135
 i =        2, time =        2.000, E =     -1573.5745211048
  I        -0.0066662636       -0.0089346583        0.0023168070
  I        -0.0062626499       -0.0042033412        0.0072446517
  I         0.0015894143       -0.0074854370       -0.0010070987
  I         0.0033504679        0.0021010955       -0.0025771350
  I        -0.0035791550        0.0074335779        0.0032193931
  I        -0.0002883211       -0.0067399697       -0.0016696051
  I         0.0133124266       -0.0052493237        0.0019012928
  I        -0.0066968299        0.0047403590       -0.0040933211
  I        -0.0121128509       -0.0038395435        0.0128736575
  I        -0.0016014499       -0.0033017748       -0.0020009339
  I        -0.0027952244       -0.0035231187        0.0026408932
  I        -0.0131308258       -0.0106793802       -0.0047505696
  I         0.0016565308        0.0072918523        0.0088433523
  I         0.0007618576       -0.0055106432       -0.0199000598
  I        -0.0029110606       -0.0053442387       -0.0054918789
  I        -0.0104506110        0.0072585378       -0.0011444719
  I        -0.0020803791       -0.0002423548        0.0045396056
  I        -0.0119961665       -0.0017807570       -0.0014206768
  I         0.0026405126        0.0030657505       -0.0003021451
  I        -0.0031769380       -0.0010390872       -0.0002624178
  I         0.0078502550       -0.0003247944       -0.0007056868
  I         0.0036366391        0.0016527071       -0.0029600597
  I         0.0034744216       -0.0003263096       -0.0035818874
  I        -0.0033581597       -0.0043846011        0.0040577934
  I         0.0125935408       -0.0080785629       -0.0009514494
  I        -0.0077736411       -0.0130077978        0.0004784783
  I        -0.0078078703       -0.0078684849       -0.0016669718
  I         0.0019738000        0.0008951995        0.0032636183
  I         0.0037310624        0.0018169052       -0.0025652638
  I        -0.0120738601        0.0030840182        0.0081476021
  I         0.0040260166        0.0179726757       -0.0067504922
  I         0.0000730313       -0.0013952364       -0.0061843124
  I         0.0015237527        0.0019454800       -0.0057956729
  I         0.0032299670       -0.0071618445       -0.0083382813
  I        -0.0019805809       -0.0027702769        0.0037656038
  I        -0.0018220859        0.0081274169        0.0039518520
  I        -0.0024909002       -0.0089302821       -0.0010710026
  I        -0.0048219792       -0.0053549468        0.0000665723
  I        -0.0029843087       -0.0024306721       -0.0001818617
  I        -0.0040325315       -0.0036969051       -0.0045532271
  I        -0.0005486086       -0.0041754742        0.0051440978
  I         0.0069171152        0.0058729699       -0.0068328190
  I        -0.0031832246       -0.0144711522        0.0201905038
  I         0.0096851847        0.0019087102       -0.0064060473
  I         0.0056942861       -0.0031841787       -0.0043593963
  I         0.0010250158       -0.0005826003       -0.0083273905
  I        -0.0087530301        0.0013948816        0.0130548812
  I        -0.0071447421       -0.0000261637        0.0128374443
  I        -0.0003847483       -0.0138982838       -0.0032647625
  I         0.0055273814       -0.0036119357       -0.0019697294
  I         0.0010188210       -0.0013598834        0.0024804911
  I         0.0045494320        0.0027247401       -0.0090367189
  I         0.0013985207       -0.0061345841        0.0006519125
  I         0.0120166425       -0.0015162472        0.0257971985
  I        -0.0021212663        0.0001959761        0.0027408378
  I        -0.0069108843        0.0162442806        0.0138121629
  I         0.0007003141        0.0024974216       -0.0070158483
  I        -0.0096440149       -0.0024009068       -0.0067290856
  I        -0.0044912076        0.0019283877        0.0026167991
  I        -0.0071902422       -0.0012136060        0.0005046860
  I         0.0045665578       -0.0012154458       -0.0005592253
  I        -0.0096336794        0.0009785066       -0.0028490217
  I        -0.0026187596       -0.0019817279       -0.0018232207
  I         0.0015261940        0.0015567157       -0.0070684514
  I        -0.0015138011       -0.0051386779       -0.0005667014
  I        -0.0013361386        0.0121766068        0.0058617574
  I         0.0031335838        0.0039098619        0.0063660573
  I        -0.0049452336       -0.0036836120        0.0014374706
  I         0.0016951424       -0.0036764599        0.0070856267
  I        -0.0008397064        0.0055515056        0.0008080847
  I        -0.0035131078       -0.0114593069        0.0002390136
  I         0.0004395502       -0.0047457347       -0.0023347656
  I        -0.0023291457        0.0007032269       -0.0122292649
  I        -0.0000936651       -0.0012757859        0.0064528145
  I         0.0083426818        0.0076576532        0.0058037167
  I         0.0040901411       -0.0077706004       -0.0071563946
  I        -0.0093027505        0.0119957153       -0.0029644928
  I        -0.0097375151        0.0047054194       -0.0014831910
  I         0.0010322469        0.0075376670        0.0052276685
  I         0.0019750602        0.0060590067       -0.0015823795
  I         0.0023892563        0.0044733598        0.0074932949
 Cs         0.0057476606       -0.0031125140        0.0050696206
 Cs         0.0056126455        0.0089532910        0.0005236669
 Cs         0.0043264454        0.0010495160       -0.0032265355
 Cs         0.0115020543       -0.0029839785       -0.0048950513
 Cs         0.0038427407       -0.0040254406       -0.0001575087
 Cs        -0.0011168675        0.0002540411       -0.0020112413
 Cs        -0.0004199877       -0.0017471498       -0.0025496765
 Cs         0.0029258218        0.0034337988        0.0009039506
 Cs        -0.0051443070        0.0056285302       -0.0040253228
 Cs        -0.0007089061       -0.0017943910       -0.0023504970
 Cs         0.0080652643       -0.0059173503        0.0027376182
 Cs         0.0059647936        0.0042584621       -0.0064670983
 Cs        -0.0008107806        0.0009513650       -0.0002081079
 Cs         0.0013794296        0.0008706897        0.0009153981
 Cs        -0.0026280726       -0.0013876552       -0.0012655181
 Cs        -0.0117774992        0.0005689007       -0.0020241208
 Cs         0.0026337131       -0.0015228536       -0.0024601179
 Cs         0.0013271940        0.0046469964        0.0012211906
 Cs        -0.0022190322        0.0005731223        0.0069081632
 Cs         0.0032870399        0.0016266196       -0.0022656759
 Cs         0.0094722103        0.0020213120        0.0018406506
 Cs         0.0050325412       -0.0022051576       -0.0036518059
 Cs        -0.0004360438        0.0009191257       -0.0006029870
 Cs         0.0009893016       -0.0023962605        0.0004440238
 Cs         0.0102749075        0.0044973483        0.0033555551
 Cs         0.0058258035        0.0109146567        0.0040538521
 Cs         0.0032592456        0.0070432137       -0.0005604681
 Pb        -0.0153019868       -0.0254547089        0.0016246604
 Pb         0.0017590094       -0.0019810973       -0.0089531548
 Pb        -0.0083908641       -0.0032505935       -0.0099538267
 Pb         0.0093659743        0.0121589738        0.0069361151
 Pb         0.0055780825       -0.0126249974        0.0006063358
 Pb         0.0150026948       -0.0037708025        0.0058736707
 Pb        -0.0172353946        0.0014391273        0.0028507091
 Pb         0.0104296562       -0.0147811649       -0.0149288286
 Pb         0.0083377093       -0.0017266720       -0.0166724521
 Pb        -0.0050972664        0.0238588671       -0.0130652515
 Pb         0.0184708864        0.0057109719        0.0017752325
 Pb         0.0158263056       -0.0005868721        0.0089675879
 Pb         0.0034247353        0.0027195803        0.0044052875
 Pb         0.0009891980       -0.0064834722        0.0033501897
 Pb         0.0059241675        0.0053857740        0.0086490266
 Pb        -0.0013924008        0.0001687219       -0.0000393507
 Pb        -0.0021536812       -0.0079207871       -0.0004250278
 Pb         0.0159832384        0.0076168840        0.0063078246
 Pb         0.0031500858        0.0073294907        0.0061442189
 Pb        -0.0030205973        0.0097967694        0.0034738436
 Pb        -0.0278751269        0.0030784706       -0.0226068659
 Pb        -0.0023805525        0.0079845846        0.0009582244
 Pb        -0.0059777959       -0.0073930331       -0.0010925432
 Pb         0.0053722636       -0.0057558469       -0.0096250830
 Pb        -0.0075551358        0.0133353803        0.0122540913
 Pb        -0.0081373564        0.0104530695        0.0095589833
 Pb         0.0046632903        0.0092181721       -0.0050548517
