#     Step Nr.          Time[fs]        Kin.[a.u.]          Temp[K]            Pot.[a.u.]        Cons Qty[a.u.]        UsedTime[s]
         0            0.000000         0.350091436       550.000000000     -1573.574394704     -1573.221480191         0.000000000
         1            1.000000         0.349650298       549.306964259     -1573.574443174     -1573.221480661       197.803232962
         2            2.000000         0.349238984       548.660782133     -1573.574521105     -1573.221481561        11.062143724
