 DBCSR| CPU Multiplication driver                                           XSMM
 DBCSR| Multrec recursion limit                                              512
 DBCSR| Multiplication stack size                                           1000
 DBCSR| Maximum elements for images                                    UNLIMITED
 DBCSR| Multiplicative factor virtual images                                   1
 DBCSR| Use multiplication densification                                       T
 DBCSR| Multiplication size stacks                                             3
 DBCSR| Use memory pool for CPU allocation                                     F
 DBCSR| Number of 3D layers                                               SINGLE
 DBCSR| Use MPI memory allocation                                              F
 DBCSR| Use RMA algorithm                                                      F
 DBCSR| Use Communication thread                                               T
 DBCSR| Communication thread load                                             87
 DBCSR| MPI: My node id                                                        0
 DBCSR| MPI: Number of nodes                                                  32
 DBCSR| OMP: Current number of threads                                         1
 DBCSR| OMP: Max number of threads                                             1
 DBCSR| Split modifier for TAS multiplication algorithm                  1.0E+00


  **** **** ******  **  PROGRAM STARTED AT               2024-01-22 17:03:09.366
 ***** ** ***  *** **   PROGRAM STARTED ON                 dp-lbg-11490-10720944
 **    ****   ******    PROGRAM STARTED BY                             <unknown>
 ***** **    ** ** **   PROGRAM PROCESS ID                                   244
  **** **  *******  **  PROGRAM STARTED IN        /home/input_lbg-11490-10720944

 CP2K| version string:                                       CP2K version 2022.2
 CP2K| source code revision number:                                  git:a95ec40
 CP2K| cp2kflags: omp libint fftw3 libxc elpa parallel mpi3 scalapack cosma xsmm
 CP2K|             plumed2 spglib libvori libbqb
 CP2K| is freely available from                            https://www.cp2k.org/
 CP2K| Program compiled at                          Mon Apr 10 14:36:57 CST 2023
 CP2K| Program compiled on                                 bohrium-14782-1011727
 CP2K| Program compiled for                                                local
 CP2K| Data directory path                           /root/cp2k/cp2k-2022.2/data
 CP2K| Input file name                                                 input.inp

 GLOBAL| Force Environment number                                              1
 GLOBAL| Basis set file name                                        BASIS_MOLOPT
 GLOBAL| Potential file name                                      GTH_POTENTIALS
 GLOBAL| MM Potential file name                                     MM_POTENTIAL
 GLOBAL| Coordinate file name                                      __STD_INPUT__
 GLOBAL| Method name                                                        CP2K
 GLOBAL| Project name                                                     system
 GLOBAL| Run type                                                             MD
 GLOBAL| FFT library                                                       FFTW3
 GLOBAL| Diagonalization library                                            ELPA
 GLOBAL| Minimum number of eigenvectors for ELPA usage                        16
 GLOBAL| Orthonormality check for eigenvectors                          DISABLED
 GLOBAL| Matrix multiplication library                                     COSMA
 GLOBAL| All-to-all communication in single precision                          F
 GLOBAL| FFTs using library dependent lengths                                  F
 GLOBAL| Grid backend                                                       AUTO
 GLOBAL| Global print level                                               MEDIUM
 GLOBAL| MPI I/O enabled                                                       T
 GLOBAL| Total number of message passing processes                            32
 GLOBAL| Number of threads for this process                                    1
 GLOBAL| This output is from process                                           0
 GLOBAL| Stack size for threads created by OpenMP (OMP_STACKSIZE)        default
 GLOBAL| CPU model name            Intel(R) Xeon(R) Platinum 8374C CPU @ 2.70GHz
 GLOBAL| CPUID                                                              1003

 MEMORY| system memory details [Kb]
 MEMORY|                        rank 0           min           max       average
 MEMORY| MemTotal            129841340     129841340     129841340     129841340
 MEMORY| MemFree             125205228     125205228     125205260     125205237
 MEMORY| Buffers                 31824         31824         31824         31824
 MEMORY| Cached                1052200       1052200       1052200       1052200
 MEMORY| Slab                   289800        289768        289800        289791
 MEMORY| SReclaimable           127164        127164        127164        127164
 MEMORY| MemLikelyFree       126416416     126416416     126416448     126416425


 *** Fundamental physical constants (SI units) ***

 *** Literature: B. J. Mohr and B. N. Taylor,
 ***             CODATA recommended values of the fundamental physical
 ***             constants: 2006, Web Version 5.1
 ***             http://physics.nist.gov/constants

 Speed of light in vacuum [m/s]                             2.99792458000000E+08
 Magnetic constant or permeability of vacuum [N/A**2]       1.25663706143592E-06
 Electric constant or permittivity of vacuum [F/m]          8.85418781762039E-12
 Planck constant (h) [J*s]                                  6.62606896000000E-34
 Planck constant (h-bar) [J*s]                              1.05457162825177E-34
 Elementary charge [C]                                      1.60217648700000E-19
 Electron mass [kg]                                         9.10938215000000E-31
 Electron g factor [ ]                                     -2.00231930436220E+00
 Proton mass [kg]                                           1.67262163700000E-27
 Fine-structure constant                                    7.29735253760000E-03
 Rydberg constant [1/m]                                     1.09737315685270E+07
 Avogadro constant [1/mol]                                  6.02214179000000E+23
 Boltzmann constant [J/K]                                   1.38065040000000E-23
 Atomic mass unit [kg]                                      1.66053878200000E-27
 Bohr radius [m]                                            5.29177208590000E-11

 *** Conversion factors ***

 [u] -> [a.u.]                                              1.82288848426455E+03
 [Angstrom] -> [Bohr] = [a.u.]                              1.88972613288564E+00
 [a.u.] = [Bohr] -> [Angstrom]                              5.29177208590000E-01
 [a.u.] -> [s]                                              2.41888432650478E-17
 [a.u.] -> [fs]                                             2.41888432650478E-02
 [a.u.] -> [J]                                              4.35974393937059E-18
 [a.u.] -> [N]                                              8.23872205491840E-08
 [a.u.] -> [K]                                              3.15774647902944E+05
 [a.u.] -> [kJ/mol]                                         2.62549961709828E+03
 [a.u.] -> [kcal/mol]                                       6.27509468713739E+02
 [a.u.] -> [Pa]                                             2.94210107994716E+13
 [a.u.] -> [bar]                                            2.94210107994716E+08
 [a.u.] -> [atm]                                            2.90362800883016E+08
 [a.u.] -> [eV]                                             2.72113838565563E+01
 [a.u.] -> [Hz]                                             6.57968392072181E+15
 [a.u.] -> [1/cm] (wave numbers)                            2.19474631370540E+05
 [a.u./Bohr**2] -> [1/cm]                                   5.14048714338585E+03
 

 CELL_TOP| Volume [angstrom^3]:                                       955.671625
 CELL_TOP| Vector a [angstrom     9.850     0.000     0.000   |a| =     9.850000
 CELL_TOP| Vector b [angstrom     0.000     9.850     0.000   |b| =     9.850000
 CELL_TOP| Vector c [angstrom     0.000     0.000     9.850   |c| =     9.850000
 CELL_TOP| Angle (b,c), alpha [degree]:                                90.000000
 CELL_TOP| Angle (a,c), beta  [degree]:                                90.000000
 CELL_TOP| Angle (a,b), gamma [degree]:                                90.000000
 CELL_TOP| Numerically orthorhombic:                                         YES

 GENERATE|  Preliminary Number of Bonds generated:                             0
 GENERATE|  Achieved consistency in connectivity generation.

 CELL| Volume [angstrom^3]:                                           955.671625
 CELL| Vector a [angstrom]:       9.850     0.000     0.000   |a| =     9.850000
 CELL| Vector b [angstrom]:       0.000     9.850     0.000   |b| =     9.850000
 CELL| Vector c [angstrom]:       0.000     0.000     9.850   |c| =     9.850000
 CELL| Angle (b,c), alpha [degree]:                                    90.000000
 CELL| Angle (a,c), beta  [degree]:                                    90.000000
 CELL| Angle (a,b), gamma [degree]:                                    90.000000
 CELL| Numerically orthorhombic:                                             YES

 CELL_REF| Volume [angstrom^3]:                                       955.671625
 CELL_REF| Vector a [angstrom     9.850     0.000     0.000   |a| =     9.850000
 CELL_REF| Vector b [angstrom     0.000     9.850     0.000   |b| =     9.850000
 CELL_REF| Vector c [angstrom     0.000     0.000     9.850   |c| =     9.850000
 CELL_REF| Angle (b,c), alpha [degree]:                                90.000000
 CELL_REF| Angle (a,c), beta  [degree]:                                90.000000
 CELL_REF| Angle (a,b), gamma [degree]:                                90.000000
 CELL_REF| Numerically orthorhombic:                                         YES

 *******************************************************************************
                                    Kpoints
 *******************************************************************************
 BRILLOUIN| K-point scheme                                        Monkhorst-Pack
 BRILLOUIN| K-Point grid                                             2    2    2
 BRILLOUIN| Accuracy in Symmetry determination                      0.100000E-05
 BRILLOUIN| K-Point point group symmetrization                               OFF
 BRILLOUIN| Wavefunction type                                            COMPLEX
 BRILLOUIN| List of Kpoints [2 Pi/Bohr]                                        4
 BRILLOUIN| Number           Weight            X              Y              Z
 BRILLOUIN|     1           0.25000       -0.25000       -0.25000       -0.25000
 BRILLOUIN|     2           0.25000       -0.25000       -0.25000        0.25000
 BRILLOUIN|     3           0.25000       -0.25000        0.25000       -0.25000
 BRILLOUIN|     4           0.25000       -0.25000        0.25000        0.25000
 *******************************************************************************

 *******************************************************************************
 *******************************************************************************
 **                                                                           **
 **     #####                         ##              ##                      **
 **    ##   ##            ##          ##              ##                      **
 **   ##     ##                       ##            ######                    **
 **   ##     ##  ##   ##  ##   #####  ##  ##   ####   ##    #####    #####    **
 **   ##     ##  ##   ##  ##  ##      ## ##   ##      ##   ##   ##  ##   ##   **
 **   ##  ## ##  ##   ##  ##  ##      ####     ###    ##   ######   ######    **
 **    ##  ###   ##   ##  ##  ##      ## ##      ##   ##   ##       ##        **
 **     #######   #####   ##   #####  ##  ##  ####    ##    #####   ##        **
 **           ##                                                    ##        **
 **                                                                           **
 **                                                ... make the atoms dance   **
 **                                                                           **
 **            Copyright (C) by CP2K developers group (2000-2022)             **
 **                      J. Chem. Phys. 152, 194103 (2020)                    **
 **                                                                           **
 *******************************************************************************

 DFT| Spin restricted Kohn-Sham (RKS) calculation                            RKS
 DFT| Multiplicity                                                             1
 DFT| Number of spin states                                                    1
 DFT| Charge                                                                   0
 DFT| Self-interaction correction (SIC)                                       NO
 DFT| Cutoffs: density                                              1.000000E-10
 DFT|          gradient                                             1.000000E-10
 DFT|          tau                                                  1.000000E-10
 DFT|          cutoff_smoothing_range                               0.000000E+00
 DFT| XC density smoothing                                                  NONE
 DFT| XC derivatives                                                          PW

 FUNCTIONAL| PBE:
 FUNCTIONAL| J.P.Perdew, K.Burke, M.Ernzerhof, Phys. Rev. Letter, vol. 77, n 18,
 FUNCTIONAL|  pp. 3865-3868, (1996){spin unpolarized}                           


 QS| Method:                                                                 GPW
 QS| Density plane wave grid type                        NON-SPHERICAL FULLSPACE
 QS| Number of grid levels:                                                    4
 QS| Density cutoff [a.u.]:                                                500.0
 QS| Multi grid cutoff [a.u.]: 1) grid level                               500.0
 QS|                           2) grid level                               166.7
 QS|                           3) grid level                                55.6
 QS|                           4) grid level                                18.5
 QS| Grid level progression factor:                                          3.0
 QS| Relative density cutoff [a.u.]:                                        30.0
 QS| Interaction thresholds: eps_pgf_orb:                                1.0E-06
 QS|                         eps_filter_matrix:                          0.0E+00
 QS|                         eps_core_charge:                            1.0E-14
 QS|                         eps_rho_gspace:                             1.0E-12
 QS|                         eps_rho_rspace:                             1.0E-12
 QS|                         eps_gvg_rspace:                             1.0E-06
 QS|                         eps_ppl:                                    1.0E-02
 QS|                         eps_ppnl:                                   1.0E-08


 ATOMIC KIND INFORMATION

  1. Atomic kind: Li                                    Number of atoms:      24

     Orbital Basis Set                                        DZVP-MOLOPT-SR-GTH

       Number of orbital shell sets:                                           1
       Number of orbital shells:                                               4
       Number of primitive Cartesian functions:                                5
       Number of Cartesian basis functions:                                    6
       Number of spherical basis functions:                                    6
       Norm type:                                                              2

       Normalised Cartesian orbitals:

                        Set   Shell   Orbital            Exponent    Coefficient

                          1       1    2s                7.133128       0.845417
                                                         1.999997       0.491024
                                                         0.612031       0.147779
                                                         0.084367       0.023020
                                                         0.032613       0.006029

                          1       2    3s                7.133128       0.356560
                                                         1.999997       0.274758
                                                         0.612031       0.123518
                                                         0.084367      -0.073250
                                                         0.032613      -0.022874

                          1       3    4s                7.133128      -0.506239
                                                         1.999997      -0.114387
                                                         0.612031      -0.015464
                                                         0.084367      -0.188013
                                                         0.032613       0.089984

                          1       4    3px               7.133128      -0.353696
                                                         1.999997      -0.012401
                                                         0.612031      -0.242249
                                                         0.084367      -0.056703
                                                         0.032613       0.000856
                          1       4    3py               7.133128      -0.353696
                                                         1.999997      -0.012401
                                                         0.612031      -0.242249
                                                         0.084367      -0.056703
                                                         0.032613       0.000856
                          1       4    3pz               7.133128      -0.353696
                                                         1.999997      -0.012401
                                                         0.612031      -0.242249
                                                         0.084367      -0.056703
                                                         0.032613       0.000856

       Atomic covalent radius [Angstrom]:                                  1.230

       Atomic van der Waals radius [Angstrom]:                             1.820

     GTH Potential information for                                       GTH-PBE

       Description:                       Goedecker-Teter-Hutter pseudopotential
                                           Goedecker et al., PRB 54, 1703 (1996)
                                          Hartwigsen et al., PRB 58, 3641 (1998)
                                                      Krack, TCA 114, 145 (2005)

       Gaussian exponent of the core charge distribution:               3.125000
       Electronic configuration (s p d ...):                                   3

       Parameters of the local part of the GTH pseudopotential:

                          rloc        C1          C2          C3          C4
                        0.400000  -14.081155    9.626220   -1.783616    0.085152

  2. Atomic kind: P                                     Number of atoms:       4

     Orbital Basis Set                                        DZVP-MOLOPT-SR-GTH

       Number of orbital shell sets:                                           1
       Number of orbital shells:                                               5
       Number of primitive Cartesian functions:                                4
       Number of Cartesian basis functions:                                   14
       Number of spherical basis functions:                                   13
       Norm type:                                                              2

       Normalised Cartesian orbitals:

                        Set   Shell   Orbital            Exponent    Coefficient

                          1       1    2s                1.631862       0.315960
                                                         0.708433      -0.011644
                                                         0.284968      -0.248059
                                                         0.098012      -0.033509

                          1       2    3s                1.631862       0.419007
                                                         0.708433       0.005279
                                                         0.284968      -0.282133
                                                         0.098012       0.197813

                          1       3    3px               1.631862       0.226606
                                                         0.708433      -0.227650
                                                         0.284968      -0.167400
                                                         0.098012      -0.028303
                          1       3    3py               1.631862       0.226606
                                                         0.708433      -0.227650
                                                         0.284968      -0.167400
                                                         0.098012      -0.028303
                          1       3    3pz               1.631862       0.226606
                                                         0.708433      -0.227650
                                                         0.284968      -0.167400
                                                         0.098012      -0.028303

                          1       4    4px               1.631862       0.384208
                                                         0.708433      -0.392252
                                                         0.284968      -0.044799
                                                         0.098012       0.090234
                          1       4    4py               1.631862       0.384208
                                                         0.708433      -0.392252
                                                         0.284968      -0.044799
                                                         0.098012       0.090234
                          1       4    4pz               1.631862       0.384208
                                                         0.708433      -0.392252
                                                         0.284968      -0.044799
                                                         0.098012       0.090234

                          1       5    4dx2              1.631862       0.468049
                                                         0.708433       0.312960
                                                         0.284968       0.088381
                                                         0.098012       0.007956
                          1       5    4dxy              1.631862       0.810685
                                                         0.708433       0.542063
                                                         0.284968       0.153081
                                                         0.098012       0.013780
                          1       5    4dxz              1.631862       0.810685
                                                         0.708433       0.542063
                                                         0.284968       0.153081
                                                         0.098012       0.013780
                          1       5    4dy2              1.631862       0.468049
                                                         0.708433       0.312960
                                                         0.284968       0.088381
                                                         0.098012       0.007956
                          1       5    4dyz              1.631862       0.810685
                                                         0.708433       0.542063
                                                         0.284968       0.153081
                                                         0.098012       0.013780
                          1       5    4dz2              1.631862       0.468049
                                                         0.708433       0.312960
                                                         0.284968       0.088381
                                                         0.098012       0.007956

       Atomic covalent radius [Angstrom]:                                  1.060

       Atomic van der Waals radius [Angstrom]:                             1.800

     GTH Potential information for                                       GTH-PBE

       Description:                       Goedecker-Teter-Hutter pseudopotential
                                           Goedecker et al., PRB 54, 1703 (1996)
                                          Hartwigsen et al., PRB 58, 3641 (1998)
                                                      Krack, TCA 114, 145 (2005)

       Gaussian exponent of the core charge distribution:               2.704164
       Electronic configuration (s p d ...):                               2   3

       Parameters of the local part of the GTH pseudopotential:

                          rloc        C1          C2          C3          C4
                        0.430000   -5.875943

       Parameters of the non-local part of the GTH pseudopotential:

                   l      r(l)      h(i,j,l)

                   0    0.396377   11.008862   -3.470356
                                   -3.470356    4.480210
                   1    0.448298    3.056064

  3. Atomic kind: S                                     Number of atoms:      20

     Orbital Basis Set                                        DZVP-MOLOPT-SR-GTH

       Number of orbital shell sets:                                           1
       Number of orbital shells:                                               5
       Number of primitive Cartesian functions:                                4
       Number of Cartesian basis functions:                                   14
       Number of spherical basis functions:                                   13
       Norm type:                                                              2

       Normalised Cartesian orbitals:

                        Set   Shell   Orbital            Exponent    Coefficient

                          1       1    2s                2.215855       0.308496
                                                         1.131471       0.138505
                                                         0.410168      -0.373736
                                                         0.140587      -0.040370

                          1       2    3s                2.215855      -0.329528
                                                         1.131471      -0.517509
                                                         0.410168       0.787368
                                                         0.140587      -0.322786

                          1       3    3px               2.215855       0.420434
                                                         1.131471      -0.319283
                                                         0.410168      -0.335323
                                                         0.140587      -0.030976
                          1       3    3py               2.215855       0.420434
                                                         1.131471      -0.319283
                                                         0.410168      -0.335323
                                                         0.140587      -0.030976
                          1       3    3pz               2.215855       0.420434
                                                         1.131471      -0.319283
                                                         0.410168      -0.335323
                                                         0.140587      -0.030976

                          1       4    4px               2.215855       0.241296
                                                         1.131471      -0.170582
                                                         0.410168      -0.186977
                                                         0.140587       0.153509
                          1       4    4py               2.215855       0.241296
                                                         1.131471      -0.170582
                                                         0.410168      -0.186977
                                                         0.140587       0.153509
                          1       4    4pz               2.215855       0.241296
                                                         1.131471      -0.170582
                                                         0.410168      -0.186977
                                                         0.140587       0.153509

                          1       5    4dx2              2.215855       0.573559
                                                         1.131471       0.544926
                                                         0.410168       0.228284
                                                         0.140587       0.008811
                          1       5    4dxy              2.215855       0.993434
                                                         1.131471       0.943840
                                                         0.410168       0.395400
                                                         0.140587       0.015260
                          1       5    4dxz              2.215855       0.993434
                                                         1.131471       0.943840
                                                         0.410168       0.395400
                                                         0.140587       0.015260
                          1       5    4dy2              2.215855       0.573559
                                                         1.131471       0.544926
                                                         0.410168       0.228284
                                                         0.140587       0.008811
                          1       5    4dyz              2.215855       0.993434
                                                         1.131471       0.943840
                                                         0.410168       0.395400
                                                         0.140587       0.015260
                          1       5    4dz2              2.215855       0.573559
                                                         1.131471       0.544926
                                                         0.410168       0.228284
                                                         0.140587       0.008811

       Atomic covalent radius [Angstrom]:                                  1.020

       Atomic van der Waals radius [Angstrom]:                             1.800

     GTH Potential information for                                       GTH-PBE

       Description:                       Goedecker-Teter-Hutter pseudopotential
                                           Goedecker et al., PRB 54, 1703 (1996)
                                          Hartwigsen et al., PRB 58, 3641 (1998)
                                                      Krack, TCA 114, 145 (2005)

       Gaussian exponent of the core charge distribution:               2.834467
       Electronic configuration (s p d ...):                               2   4

       Parameters of the local part of the GTH pseudopotential:

                          rloc        C1          C2          C3          C4
                        0.420000   -5.986260

       Parameters of the non-local part of the GTH pseudopotential:

                   l      r(l)      h(i,j,l)

                   0    0.364820   13.143544   -4.241830
                                   -4.241830    5.476180
                   1    0.409480    3.700891

  4. Atomic kind: Cl                                    Number of atoms:       4

     Orbital Basis Set                                        DZVP-MOLOPT-SR-GTH

       Number of orbital shell sets:                                           1
       Number of orbital shells:                                               5
       Number of primitive Cartesian functions:                                4
       Number of Cartesian basis functions:                                   14
       Number of spherical basis functions:                                   13
       Norm type:                                                              2

       Normalised Cartesian orbitals:

                        Set   Shell   Orbital            Exponent    Coefficient

                          1       1    2s                2.379078       0.403013
                                                         1.470718       0.018727
                                                         0.461213      -0.342539
                                                         0.150015      -0.058490

                          1       2    3s                2.379078       0.556232
                                                         1.470718       0.430620
                                                         0.461213      -0.745502
                                                         0.150015       0.311453

                          1       3    3px               2.379078       0.636316
                                                         1.470718      -0.580855
                                                         0.461213      -0.325785
                                                         0.150015      -0.051764
                          1       3    3py               2.379078       0.636316
                                                         1.470718      -0.580855
                                                         0.461213      -0.325785
                                                         0.150015      -0.051764
                          1       3    3pz               2.379078       0.636316
                                                         1.470718      -0.580855
                                                         0.461213      -0.325785
                                                         0.150015      -0.051764

                          1       4    4px               2.379078       0.838044
                                                         1.470718      -0.610657
                                                         0.461213      -0.295677
                                                         0.150015       0.171492
                          1       4    4py               2.379078       0.838044
                                                         1.470718      -0.610657
                                                         0.461213      -0.295677
                                                         0.150015       0.171492
                          1       4    4pz               2.379078       0.838044
                                                         1.470718      -0.610657
                                                         0.461213      -0.295677
                                                         0.150015       0.171492

                          1       5    4dx2              2.379078       0.509952
                                                         1.470718       0.891639
                                                         0.461213       0.295732
                                                         0.150015       0.008371
                          1       5    4dxy              2.379078       0.883263
                                                         1.470718       1.544364
                                                         0.461213       0.512223
                                                         0.150015       0.014498
                          1       5    4dxz              2.379078       0.883263
                                                         1.470718       1.544364
                                                         0.461213       0.512223
                                                         0.150015       0.014498
                          1       5    4dy2              2.379078       0.509952
                                                         1.470718       0.891639
                                                         0.461213       0.295732
                                                         0.150015       0.008371
                          1       5    4dyz              2.379078       0.883263
                                                         1.470718       1.544364
                                                         0.461213       0.512223
                                                         0.150015       0.014498
                          1       5    4dz2              2.379078       0.509952
                                                         1.470718       0.891639
                                                         0.461213       0.295732
                                                         0.150015       0.008371

       Atomic covalent radius [Angstrom]:                                  0.990

       Atomic van der Waals radius [Angstrom]:                             1.750

     GTH Potential information for                                       GTH-PBE

       Description:                       Goedecker-Teter-Hutter pseudopotential
                                           Goedecker et al., PRB 54, 1703 (1996)
                                          Hartwigsen et al., PRB 58, 3641 (1998)
                                                      Krack, TCA 114, 145 (2005)

       Gaussian exponent of the core charge distribution:               2.974420
       Electronic configuration (s p d ...):                               2   5

       Parameters of the local part of the GTH pseudopotential:

                          rloc        C1          C2          C3          C4
                        0.410000   -6.392082

       Parameters of the non-local part of the GTH pseudopotential:

                   l      r(l)      h(i,j,l)

                   0    0.339539   15.218990   -4.934523
                                   -4.934523    6.370442
                   1    0.378474    4.338775


 MOLECULE KIND INFORMATION


 All atoms are their own molecule, skipping detailed information


 TOTAL NUMBERS AND MAXIMUM NUMBERS

  Total number of            - Atomic kinds:                                   4
                             - Atoms:                                         52
                             - Shell sets:                                    52
                             - Shells:                                       236
                             - Primitive Cartesian functions:                232
                             - Cartesian basis functions:                    536
                             - Spherical basis functions:                    508

  Maximum angular momentum of- Orbital basis functions:                        2
                             - Local part of the GTH pseudopotential:          6
                             - Non-local part of the GTH pseudopotential:      2


 MODULE QUICKSTEP:  ATOMIC COORDINATES IN angstrom

 Atom  Kind  Element       X           Y           Z          Z(eff)       Mass
    1   1 Li   3       2.462500    2.462500    0.227663       3.0000      6.9410
    2   1 Li   3       2.462500    2.462500    4.697337       3.0000      6.9410
    3   1 Li   3       2.462500    4.697337    2.462500       3.0000      6.9410
    4   1 Li   3       2.462500    0.227663    2.462500       3.0000      6.9410
    5   1 Li   3       0.227663    2.462500    2.462500       3.0000      6.9410
    6   1 Li   3       4.697337    2.462500    2.462500       3.0000      6.9410
    7   1 Li   3       2.462500    7.387500    5.152663       3.0000      6.9410
    8   1 Li   3       2.462500    7.387500    9.622337       3.0000      6.9410
    9   1 Li   3       2.462500    9.622337    7.387500       3.0000      6.9410
   10   1 Li   3       2.462500    5.152663    7.387500       3.0000      6.9410
   11   1 Li   3       0.227663    7.387500    7.387500       3.0000      6.9410
   12   1 Li   3       4.697337    7.387500    7.387500       3.0000      6.9410
   13   1 Li   3       7.387500    2.462500    5.152663       3.0000      6.9410
   14   1 Li   3       7.387500    2.462500    9.622337       3.0000      6.9410
   15   1 Li   3       7.387500    4.697337    7.387500       3.0000      6.9410
   16   1 Li   3       7.387500    0.227663    7.387500       3.0000      6.9410
   17   1 Li   3       5.152663    2.462500    7.387500       3.0000      6.9410
   18   1 Li   3       9.622337    2.462500    7.387500       3.0000      6.9410
   19   1 Li   3       7.387500    7.387500    0.227663       3.0000      6.9410
   20   1 Li   3       7.387500    7.387500    4.697337       3.0000      6.9410
   21   1 Li   3       7.387500    9.622337    2.462500       3.0000      6.9410
   22   1 Li   3       7.387500    5.152663    2.462500       3.0000      6.9410
   23   1 Li   3       5.152663    7.387500    2.462500       3.0000      6.9410
   24   1 Li   3       9.622337    7.387500    2.462500       3.0000      6.9410
   25   2 P   15       4.925000    0.000000    0.000000       5.0000     30.9738
   26   2 P   15       4.925000    4.925000    4.925000       5.0000     30.9738
   27   2 P   15       0.000000    0.000000    4.925000       5.0000     30.9738
   28   2 P   15       0.000000    4.925000    0.000000       5.0000     30.9738
   29   3 S   16       1.137895    3.787105    8.712105       6.0000     32.0650
   30   3 S   16       8.712105    3.787105    1.137895       6.0000     32.0650
   31   3 S   16       3.787105    1.137895    8.712105       6.0000     32.0650
   32   3 S   16       6.062895    1.137895    1.137895       6.0000     32.0650
   33   3 S   16       1.137895    8.712105    3.787105       6.0000     32.0650
   34   3 S   16       8.712105    8.712105    6.062895       6.0000     32.0650
   35   3 S   16       3.787105    6.062895    3.787105       6.0000     32.0650
   36   3 S   16       6.062895    6.062895    6.062895       6.0000     32.0650
   37   3 S   16       6.062895    3.787105    3.787105       6.0000     32.0650
   38   3 S   16       3.787105    3.787105    6.062895       6.0000     32.0650
   39   3 S   16       8.712105    1.137895    3.787105       6.0000     32.0650
   40   3 S   16       1.137895    1.137895    6.062895       6.0000     32.0650
   41   3 S   16       6.062895    8.712105    8.712105       6.0000     32.0650
   42   3 S   16       3.787105    8.712105    1.137895       6.0000     32.0650
   43   3 S   16       8.712105    6.062895    8.712105       6.0000     32.0650
   44   3 S   16       1.137895    6.062895    1.137895       6.0000     32.0650
   45   3 S   16       7.387500    2.462500    7.387500       6.0000     32.0650
   46   3 S   16       7.387500    7.387500    2.462500       6.0000     32.0650
   47   3 S   16       0.000000    0.000000    0.000000       6.0000     32.0650
   48   3 S   16       0.000000    4.925000    4.925000       6.0000     32.0650
   49   4 Cl  17       4.925000    0.000000    4.925000       7.0000     35.4530
   50   4 Cl  17       4.925000    4.925000    0.000000       7.0000     35.4530
   51   4 Cl  17       2.462500    2.462500    2.462500       7.0000     35.4530
   52   4 Cl  17       2.462500    7.387500    7.387500       7.0000     35.4530




 SCF PARAMETERS         Density guess:                                    ATOMIC
                        --------------------------------------------------------
                        max_scf:                                             100
                        max_scf_history:                                       0
                        max_diis:                                              4
                        --------------------------------------------------------
                        eps_scf:                                        1.00E-06
                        eps_scf_history:                                0.00E+00
                        eps_diis:                                       1.00E-01
                        eps_eigval:                                     1.00E-05
                        --------------------------------------------------------
                        level_shift [a.u.]:                             0.000000
                        added MOs                                       200    0
                        --------------------------------------------------------
                        Mixing method:                            BROYDEN_MIXING
                                                charge density mixing in g-space
                        --------------------------------------------------------
                        Smear method:                                FERMI_DIRAC
                        Electronic temperature [K]:                        300.0
                        Electronic temperature [a.u.]:                  9.50E-04
                        Accuracy threshold:                             1.00E-10
                        --------------------------------------------------------
                        No outer SCF

 PW_GRID| Information for grid number                                          1
 PW_GRID| Grid distributed over                                    32 processors
 PW_GRID| Real space group dimensions                                    32    1
 PW_GRID| the grid is blocked:                                                NO
 PW_GRID| Cutoff [a.u.]                                                    500.0
 PW_GRID| spherical cutoff:                                                   NO
 PW_GRID|   Bounds   1            -96      95                Points:         192
 PW_GRID|   Bounds   2            -96      95                Points:         192
 PW_GRID|   Bounds   3            -96      95                Points:         192
 PW_GRID| Volume element (a.u.^3)  0.9112E-03     Volume (a.u.^3)      6449.1919
 PW_GRID| Grid span                                                    FULLSPACE
 PW_GRID|   Distribution                         Average         Max         Min
 PW_GRID|   G-Vectors                           221184.0      221184      221184
 PW_GRID|   G-Rays                                1152.0        1152        1152
 PW_GRID|   Real Space Points                   221184.0      221184      221184

 PW_GRID| Information for grid number                                          2
 PW_GRID| Number of the reference grid                                         1
 PW_GRID| Grid distributed over                                    32 processors
 PW_GRID| Real space group dimensions                                    32    1
 PW_GRID| the grid is blocked:                                                NO
 PW_GRID| Cutoff [a.u.]                                                    166.7
 PW_GRID| spherical cutoff:                                                   NO
 PW_GRID|   Bounds   1            -60      59                Points:         120
 PW_GRID|   Bounds   2            -60      59                Points:         120
 PW_GRID|   Bounds   3            -60      59                Points:         120
 PW_GRID| Volume element (a.u.^3)  0.3732E-02     Volume (a.u.^3)      6449.1919
 PW_GRID| Grid span                                                    FULLSPACE
 PW_GRID|   Distribution                         Average         Max         Min
 PW_GRID|   G-Vectors                            54000.0       54120       53880
 PW_GRID|   G-Rays                                 450.0         451         449
 PW_GRID|   Real Space Points                    54000.0       57600       43200

 PW_GRID| Information for grid number                                          3
 PW_GRID| Number of the reference grid                                         1
 PW_GRID| Grid distributed over                                    32 processors
 PW_GRID| Real space group dimensions                                    32    1
 PW_GRID| the grid is blocked:                                                NO
 PW_GRID| Cutoff [a.u.]                                                     55.6
 PW_GRID| spherical cutoff:                                                   NO
 PW_GRID|   Bounds   1            -32      31                Points:          64
 PW_GRID|   Bounds   2            -32      31                Points:          64
 PW_GRID|   Bounds   3            -32      31                Points:          64
 PW_GRID| Volume element (a.u.^3)  0.2460E-01     Volume (a.u.^3)      6449.1919
 PW_GRID| Grid span                                                    FULLSPACE
 PW_GRID|   Distribution                         Average         Max         Min
 PW_GRID|   G-Vectors                             8192.0        8256        8128
 PW_GRID|   G-Rays                                 128.0         129         127
 PW_GRID|   Real Space Points                     8192.0        8192        8192

 PW_GRID| Information for grid number                                          4
 PW_GRID| Number of the reference grid                                         1
 PW_GRID| Grid distributed over                                    32 processors
 PW_GRID| Real space group dimensions                                    32    1
 PW_GRID| the grid is blocked:                                                NO
 PW_GRID| Cutoff [a.u.]                                                     18.5
 PW_GRID| spherical cutoff:                                                   NO
 PW_GRID|   Bounds   1            -20      19                Points:          40
 PW_GRID|   Bounds   2            -20      19                Points:          40
 PW_GRID|   Bounds   3            -20      19                Points:          40
 PW_GRID| Volume element (a.u.^3)  0.1008         Volume (a.u.^3)      6449.1919
 PW_GRID| Grid span                                                    FULLSPACE
 PW_GRID|   Distribution                         Average         Max         Min
 PW_GRID|   G-Vectors                             2000.0        2040        1960
 PW_GRID|   G-Rays                                  50.0          51          49
 PW_GRID|   Real Space Points                     2000.0        3200        1600

 POISSON| Solver                                                        PERIODIC
 POISSON| Periodicity                                                        XYZ

 RS_GRID| Information for grid number                                          1
 RS_GRID|   Bounds   1            -96      95                Points:         192
 RS_GRID|   Bounds   2            -96      95                Points:         192
 RS_GRID|   Bounds   3            -96      95                Points:         192
 RS_GRID| Real space distribution over                                  4 groups
 RS_GRID| Real space distribution along direction                              2
 RS_GRID| Border size                                                         37
 RS_GRID| Real space distribution over                                  8 groups
 RS_GRID| Real space distribution along direction                              3
 RS_GRID| Border size                                                         37
 RS_GRID|   Distribution                         Average         Max         Min
 RS_GRID|   Planes                                 122.0         122         122
 RS_GRID|   Distribution                         Average         Max         Min
 RS_GRID|   Planes                                  98.0          98          98

 RS_GRID| Information for grid number                                          2
 RS_GRID|   Bounds   1            -60      59                Points:         120
 RS_GRID|   Bounds   2            -60      59                Points:         120
 RS_GRID|   Bounds   3            -60      59                Points:         120
 RS_GRID| Real space distribution over                                  4 groups
 RS_GRID| Real space distribution along direction                              2
 RS_GRID| Border size                                                         30
 RS_GRID| Real space distribution over                                  8 groups
 RS_GRID| Real space distribution along direction                              3
 RS_GRID| Border size                                                         30
 RS_GRID|   Distribution                         Average         Max         Min
 RS_GRID|   Planes                                  90.0          90          90
 RS_GRID|   Distribution                         Average         Max         Min
 RS_GRID|   Planes                                  75.0          75          75

 RS_GRID| Information for grid number                                          3
 RS_GRID|   Bounds   1            -32      31                Points:          64
 RS_GRID|   Bounds   2            -32      31                Points:          64
 RS_GRID|   Bounds   3            -32      31                Points:          64
 RS_GRID| Real space fully replicated
 RS_GRID| Group size                                                           1

 RS_GRID| Information for grid number                                          4
 RS_GRID|   Bounds   1            -20      19                Points:          40
 RS_GRID|   Bounds   2            -20      19                Points:          40
 RS_GRID|   Bounds   3            -20      19                Points:          40
 RS_GRID| Real space fully replicated
 RS_GRID| Group size                                                           1

 MD_PAR| Molecular dynamics protocol (MD input parameters)
 MD_PAR| Ensemble type                                                     NPT_I
 MD_PAR| Number of time steps                                                 10
 MD_PAR| Time step [fs]                                                 2.000000
 MD_PAR| Temperature [K]                                              300.000000
 MD_PAR| Temperature tolerance [K]                                      0.000000
 MD_PAR| Pressure [bar]                                                 1.000000
 MD_PAR| Barostat time constant [fs]                                  100.000000
 MD_PAR| Print MD information every                                    1 step(s)
 MD_PAR| File type   Print frequency [steps]                          File names
 MD_PAR| Coordinates          1                                 system-pos-1.xyz
 MD_PAR| Cell                 1                                    system-1.cell
 MD_PAR| Velocities           1                                 system-vel-1.xyz
 MD_PAR| Energies             1                                    system-1.ener
 MD_PAR| Dump                20                                 system-1.restart

 ROT| Rotational analysis information
 ROT| Principal axes and moments of inertia [a.u.]
 ROT|                           1                   2                   3
 ROT| Eigenvalues      1.00081690195E+08   1.22820719077E+08   1.22827011610E+08
 ROT|      x              0.563689734586     -0.000000000000     -0.825986611951
 ROT|      y              0.584060734480     -0.707106781186      0.398588833811
 ROT|      z              0.584060734480      0.707106781187      0.398588833811
 ROT| Number of rotovibrational vectors                                        6

 DOF| Calculation of degrees of freedom
 DOF| Number of atoms                                                         52
 DOF| Number of intramolecular constraints                                     0
 DOF| Number of intermolecular constraints                                     0
 DOF| Invariants (translations + rotations)                                    3
 DOF| Degrees of freedom                                                     153

 DOF| Restraints information
 DOF| Number of intramolecular restraints                                      0
 DOF| Number of intermolecular restraints                                      0

 THERMOSTAT| Thermostat information for PARTICLES
 THERMOSTAT| Type of thermostat                               Nose-Hoover-Chains
 THERMOSTAT| Nose-Hoover-Chain length                                          3
 THERMOSTAT| Nose-Hoover-Chain time constant [fs]                     200.000000
 THERMOSTAT| Order of Yoshida integrator                                       3
 THERMOSTAT| Number of multiple time steps                                     2
 THERMOSTAT| Initial potential energy                         0.000000000000E+00
 THERMOSTAT| Initial kinetic energy                           0.475022301493E-03
 THERMOSTAT| End of thermostat information for PARTICLES

 THERMOSTAT| Thermostat information for BAROSTAT
 THERMOSTAT| Type of thermostat                               Nose-Hoover-Chains
 THERMOSTAT| Nose-Hoover-Chain length                                          3
 THERMOSTAT| Nose-Hoover-Chain time constant [fs]                     200.000000
 THERMOSTAT| Order of Yoshida integrator                                       3
 THERMOSTAT| Number of multiple time steps                                     2
 THERMOSTAT| Initial potential energy                         0.000000000000E+00
 THERMOSTAT| Initial kinetic energy                           0.475022301493E-03
 THERMOSTAT| End of thermostat information for BAROSTAT

 MD_VEL| Velocities initialization
 MD_VEL| Initial temperature [K]                                      300.000000
 MD_VEL| COM velocity             0.0000000000     0.0000000000    -0.0000000000

 Number of electrons:                                                        240
 Number of occupied orbitals:                                                120
 Number of molecular orbitals:                                               320

 Number of orbital functions:                                                508
 Number of independent orbital functions:                                    508

 Extrapolation method: initial_guess

 Atomic guess: The first density matrix is obtained in terms of atomic orbitals
               and electronic configurations assigned to each atomic kind

 Guess for atomic kind: Li

 Electronic structure
    Total number of core electrons                                          0.00
    Total number of valence electrons                                       3.00
    Total number of electrons                                               3.00
    Multiplicity                                                   not specified
    S      2.00  1.00


 *******************************************************************************
                  Iteration          Convergence                     Energy [au]
 *******************************************************************************
                          1        0.183917E-01                  -7.254884366899
                          2        0.708463E-03                  -7.255014625585
                          3        0.226207E-04                  -7.255014906100
                          4        0.769982E-08                  -7.255014906338

 Energy components [Hartree]           Total Energy ::           -7.255014906338
                                        Band Energy ::           -3.727476619919
                                     Kinetic Energy ::            6.647757001546
                                   Potential Energy ::          -13.902771907884
                                      Virial (-V/T) ::            2.091347789134
                                        Core Energy ::           -9.649997762855
                                          XC Energy ::           -1.650332001141
                                     Coulomb Energy ::            4.045314857659
                       Total Pseudopotential Energy ::          -16.330257395237
                       Local Pseudopotential Energy ::          -16.330257395237
                    Nonlocal Pseudopotential Energy ::            0.000000000000
                                        Confinement ::            0.325026308350

 Orbital energies  State     L     Occupation   Energy[a.u.]          Energy[eV]

                       1     0          2.000      -1.833585          -49.894397
                       2     0          1.000      -0.060306           -1.641003


 Total Electron Density at R=0:                                         5.597914

 Guess for atomic kind: P

 Electronic structure
    Total number of core electrons                                         10.00
    Total number of valence electrons                                       5.00
    Total number of electrons                                              15.00
    Multiplicity                                                   not specified
    S   [  2.00  2.00] 2.00
    P   [  6.00] 3.00


 *******************************************************************************
                  Iteration          Convergence                     Energy [au]
 *******************************************************************************
                          1        0.547888E-01                  -6.294695823861
                          2        0.241494E-01                  -6.295812198826
                          3        0.208730E-04                  -6.296090822066
                          4        0.128813E-06                  -6.296090822346

 Energy components [Hartree]           Total Energy ::           -6.296090822346
                                        Band Energy ::           -1.502103753359
                                     Kinetic Energy ::            2.374336065496
                                   Potential Energy ::           -8.670426887841
                                      Virial (-V/T) ::            3.651726903298
                                        Core Energy ::          -10.074985295227
                                          XC Energy ::           -1.459709571065
                                     Coulomb Energy ::            5.238604043946
                       Total Pseudopotential Energy ::          -12.509466749413
                       Local Pseudopotential Energy ::          -13.863688866284
                    Nonlocal Pseudopotential Energy ::            1.354222116871
                                        Confinement ::            0.601453886900

 Orbital energies  State     L     Occupation   Energy[a.u.]          Energy[eV]

                       1     0          2.000      -0.487225          -13.258062

                       1     1          3.000      -0.175885           -4.786066


 Total Electron Density at R=0:                                         0.000062

 Guess for atomic kind: S

 Electronic structure
    Total number of core electrons                                         10.00
    Total number of valence electrons                                       6.00
    Total number of electrons                                              16.00
    Multiplicity                                                   not specified
    S   [  2.00  2.00] 2.00
    P   [  6.00] 4.00


 *******************************************************************************
                  Iteration          Convergence                     Energy [au]
 *******************************************************************************
                          1        0.506127E-01                  -9.947327174035
                          2        0.268535E-01                  -9.947806097329
                          3        0.416209E-04                  -9.948003730091
                          4        0.374461E-07                  -9.948003730535

 Energy components [Hartree]           Total Energy ::           -9.948003730535
                                        Band Energy ::           -2.105895662988
                                     Kinetic Energy ::            3.753358161068
                                   Potential Energy ::          -13.701361891603
                                      Virial (-V/T) ::            3.650427511480
                                        Core Energy ::          -16.361135329452
                                          XC Energy ::           -2.059734796104
                                     Coulomb Energy ::            8.472866395021
                       Total Pseudopotential Energy ::          -20.171145086058
                       Local Pseudopotential Energy ::          -22.366310416427
                    Nonlocal Pseudopotential Energy ::            2.195165330369
                                        Confinement ::            0.566515955377

 Orbital energies  State     L     Occupation   Energy[a.u.]          Energy[eV]

                       1     0          2.000      -0.599768          -16.320517

                       1     1          4.000      -0.226590           -6.165825


 Total Electron Density at R=0:                                         0.000005

 Guess for atomic kind: Cl

 Electronic structure
    Total number of core electrons                                         10.00
    Total number of valence electrons                                       7.00
    Total number of electrons                                              17.00
    Multiplicity                                                   not specified
    S   [  2.00  2.00] 2.00
    P   [  6.00] 5.00


 *******************************************************************************
                  Iteration          Convergence                     Energy [au]
 *******************************************************************************
                          1        0.308984E-01                 -14.773680875475
                          2        0.201549E-01                 -14.773801336480
                          3        0.133732E-03                 -14.773873182742
                          4        0.125361E-08                 -14.773873185973

 Energy components [Hartree]           Total Energy ::          -14.773873185973
                                        Band Energy ::           -2.954845295190
                                     Kinetic Energy ::            5.562225175686
                                   Potential Energy ::          -20.336098361659
                                      Virial (-V/T) ::            3.656108431308
                                        Core Energy ::          -24.691022216514
                                          XC Energy ::           -2.747191819716
                                     Coulomb Energy ::           12.664340850257
                       Total Pseudopotential Energy ::          -30.311829443010
                       Local Pseudopotential Energy ::          -33.433657643170
                    Nonlocal Pseudopotential Energy ::            3.121828200161
                                        Confinement ::            0.585820508094

 Orbital energies  State     L     Occupation   Energy[a.u.]          Energy[eV]

                       1     0          2.000      -0.738472          -20.094837

                       1     1          5.000      -0.295580           -8.043151


 Total Electron Density at R=0:                                         0.000322
 Re-scaling the density matrix to get the right number of electrons
                  # Electrons              Trace(P)               Scaling factor
                          240               240.000                        1.000


 SCF WAVEFUNCTION OPTIMIZATION

  Step     Update method      Time    Convergence         Total energy    Change
  ------------------------------------------------------------------------------
     1 NoMix/Diag. 0.40E+00    1.3     1.92944778      -474.2652986502 -4.74E+02
     2 Broy./Diag. 0.40E+00    1.6     0.22480871      -465.8964573861  8.37E+00
     3 Broy./Diag. 0.40E+00    1.7     0.06160588      -470.4739965026 -4.58E+00
     4 Broy./Diag. 0.40E+00    1.7     0.01912858      -471.6686060398 -1.19E+00
     5 Broy./Diag. 0.40E+00    1.7     0.01862012      -471.6029090869  6.57E-02
     6 Broy./Diag. 0.40E+00    1.7     0.00529259      -471.5134544177  8.95E-02
     7 Broy./Diag. 0.40E+00    1.7     0.00184087      -471.4507095153  6.27E-02
     8 Broy./Diag. 0.40E+00    1.7     0.00044195      -471.4646041215 -1.39E-02
     9 Broy./Diag. 0.40E+00    1.7     0.00017520      -471.4671436569 -2.54E-03
    10 Broy./Diag. 0.40E+00    1.7     0.00007894      -471.4683324410 -1.19E-03
    11 Broy./Diag. 0.40E+00    1.7     0.00001373      -471.4680468012  2.86E-04
    12 Broy./Diag. 0.40E+00    1.7     0.00000818      -471.4677274430  3.19E-04
    13 Broy./Diag. 0.40E+00    1.7     0.00000318      -471.4677113439  1.61E-05
    14 Broy./Diag. 0.40E+00    1.7     0.00000061      -471.4677436512 -3.23E-05

  *** SCF run converged in    14 steps ***


  Electronic density on regular grids:       -240.0000000000       -0.0000000000
  Core density on regular grids:              239.9999999997       -0.0000000003
  Total charge density on r-space grids:       -0.0000000004
  Total charge density g-space grids:          -0.0000000004

  Overlap energy of the core charge distribution:               0.00000007456654
  Self energy of the core charge distribution:               -836.38077030713396
  Core Hamiltonian energy:                                    165.73454293623394
  Hartree energy:                                             308.71030019256159
  Exchange-correlation energy:                               -109.53181642719986
  Electronic entropic energy:                                  -0.00000012021421
  Fermi energy:                                                 0.14499767768774

  Total energy:                                              -471.46774365118341

 !-----------------------------------------------------------------------------!
                     Mulliken Population Analysis

 #  Atom  Element  Kind  Atomic population                           Net charge
       1     Li       1          2.686807                              0.313193
       2     Li       1          2.686807                              0.313193
       3     Li       1          2.686807                              0.313193
       4     Li       1          2.686807                              0.313193
       5     Li       1          2.741004                              0.258996
       6     Li       1          2.598837                              0.401163
       7     Li       1          2.686807                              0.313193
       8     Li       1          2.686807                              0.313193
       9     Li       1          2.686807                              0.313193
      10     Li       1          2.686807                              0.313193
      11     Li       1          2.741004                              0.258996
      12     Li       1          2.598836                              0.401164
      13     Li       1          2.674308                              0.325692
      14     Li       1          2.674308                              0.325692
      15     Li       1          2.674309                              0.325691
      16     Li       1          2.674309                              0.325691
      17     Li       1          2.633114                              0.366886
      18     Li       1          2.728890                              0.271110
      19     Li       1          2.674308                              0.325692
      20     Li       1          2.674309                              0.325691
      21     Li       1          2.674308                              0.325692
      22     Li       1          2.674309                              0.325691
      23     Li       1          2.633113                              0.366887
      24     Li       1          2.728890                              0.271110
      25     P        2          5.369558                             -0.369558
      26     P        2          5.369558                             -0.369558
      27     P        2          5.369491                             -0.369491
      28     P        2          5.369491                             -0.369491
      29     S        3          6.116459                             -0.116459
      30     S        3          6.117248                             -0.117248
      31     S        3          6.125876                             -0.125876
      32     S        3          6.125310                             -0.125310
      33     S        3          6.116459                             -0.116459
      34     S        3          6.117248                             -0.117248
      35     S        3          6.125876                             -0.125876
      36     S        3          6.125310                             -0.125310
      37     S        3          6.125310                             -0.125310
      38     S        3          6.125876                             -0.125876
      39     S        3          6.117248                             -0.117248
      40     S        3          6.116459                             -0.116459
      41     S        3          6.125310                             -0.125310
      42     S        3          6.125876                             -0.125876
      43     S        3          6.117248                             -0.117248
      44     S        3          6.116459                             -0.116459
      45     S        3          6.719003                             -0.719003
      46     S        3          6.719003                             -0.719003
      47     S        3          6.419397                             -0.419397
      48     S        3          6.419397                             -0.419397
      49     Cl       4          7.470241                             -0.470241
      50     Cl       4          7.470241                             -0.470241
      51     Cl       4          7.536217                             -0.536217
      52     Cl       4          7.536217                             -0.536217
 # Total charge                            240.000000                  0.000000

 !-----------------------------------------------------------------------------!

 !-----------------------------------------------------------------------------!
                           Hirshfeld Charges

  #Atom  Element  Kind  Ref Charge     Population                    Net charge
      1       Li     1       3.000          3.235                        -0.235
      2       Li     1       3.000          3.235                        -0.235
      3       Li     1       3.000          3.235                        -0.235
      4       Li     1       3.000          3.235                        -0.235
      5       Li     1       3.000          3.254                        -0.254
      6       Li     1       3.000          3.207                        -0.207
      7       Li     1       3.000          3.235                        -0.235
      8       Li     1       3.000          3.235                        -0.235
      9       Li     1       3.000          3.235                        -0.235
     10       Li     1       3.000          3.235                        -0.235
     11       Li     1       3.000          3.254                        -0.254
     12       Li     1       3.000          3.207                        -0.207
     13       Li     1       3.000          3.290                        -0.290
     14       Li     1       3.000          3.290                        -0.290
     15       Li     1       3.000          3.290                        -0.290
     16       Li     1       3.000          3.290                        -0.290
     17       Li     1       3.000          3.282                        -0.282
     18       Li     1       3.000          3.304                        -0.304
     19       Li     1       3.000          3.290                        -0.290
     20       Li     1       3.000          3.290                        -0.290
     21       Li     1       3.000          3.290                        -0.290
     22       Li     1       3.000          3.290                        -0.290
     23       Li     1       3.000          3.282                        -0.282
     24       Li     1       3.000          3.304                        -0.304
     25       P      2       5.000          4.513                         0.487
     26       P      2       5.000          4.513                         0.487
     27       P      2       5.000          4.513                         0.487
     28       P      2       5.000          4.513                         0.487
     29       S      3       6.000          5.770                         0.230
     30       S      3       6.000          5.763                         0.237
     31       S      3       6.000          5.769                         0.231
     32       S      3       6.000          5.760                         0.240
     33       S      3       6.000          5.770                         0.230
     34       S      3       6.000          5.763                         0.237
     35       S      3       6.000          5.769                         0.231
     36       S      3       6.000          5.760                         0.240
     37       S      3       6.000          5.760                         0.240
     38       S      3       6.000          5.769                         0.231
     39       S      3       6.000          5.763                         0.237
     40       S      3       6.000          5.770                         0.230
     41       S      3       6.000          5.760                         0.240
     42       S      3       6.000          5.769                         0.231
     43       S      3       6.000          5.763                         0.237
     44       S      3       6.000          5.770                         0.230
     45       S      3       6.000          5.436                         0.564
     46       S      3       6.000          5.436                         0.564
     47       S      3       6.000          6.513                        -0.513
     48       S      3       6.000          6.513                        -0.513
     49       Cl     4       7.000          7.389                        -0.389
     50       Cl     4       7.000          7.389                        -0.389
     51       Cl     4       7.000          6.364                         0.636
     52       Cl     4       7.000          6.364                         0.636

  Total Charge                                                           -0.000
[...]
     33      3      S          -0.00298376     0.00910719     0.01431174
     34      3      S           0.00667717     0.00306100     0.00474959
     35      3      S           0.00363127     0.00288936    -0.00322887
     36      3      S          -0.01899062    -0.00963456    -0.01268266
     37      3      S           0.00300028     0.00060985     0.00803994
     38      3      S           0.01291545     0.00878286    -0.00424659
     39      3      S          -0.00867000     0.01095185    -0.00907897
     40      3      S           0.00024218    -0.00694443     0.00634124
     41      3      S          -0.00314780     0.01342372     0.00308220
     42      3      S           0.00236509     0.00378527     0.01415355
     43      3      S           0.00855065    -0.00811461     0.00984209
     44      3      S          -0.00191714     0.00791902    -0.00979022
     45      3      S           0.00050801     0.01536074     0.00511199
     46      3      S          -0.00314041    -0.00032261     0.00632933
     47      3      S           0.00299060     0.00604380     0.00461562
     48      3      S           0.01140701    -0.00241303     0.00293069
     49      4      Cl         -0.00490903    -0.00312543     0.00323277
     50      4      Cl         -0.00326443     0.00164714    -0.00076441
     51      4      Cl         -0.00667168    -0.00029194     0.00317762
     52      4      Cl          0.00372085     0.00112992     0.00332373
 SUM OF ATOMIC FORCES           0.00000011     0.00000091     0.00000086     0.00000126

 STRESS| Analytical stress tensor [GPa]
 STRESS|                        x                   y                   z
 STRESS|      x       -4.23950687061E-01  -4.45328958014E-02   3.02091210209E-01
 STRESS|      y       -4.45328958014E-02  -6.82814653241E-02  -2.86764601563E-01
 STRESS|      z        3.02091210209E-01  -2.86764601563E-01  -5.05240588900E-01
 STRESS| 1/3 Trace                                            -3.32490913762E-01
 STRESS| Determinant                                           3.51864162168E-02

 STRESS| Eigenvectors and eigenvalues of the analytical stress tensor [GPa]
 STRESS|                        1                   2                   3
 STRESS| Eigenvalues  -8.20761347783E-01  -3.13471641915E-01   1.36760248413E-01
 STRESS|      x          -0.565233996661      0.752273054882     -0.338519984518
 STRESS|      y           0.264345650082      0.553895857191      0.789506653974
 STRESS|      z           0.781429399435      0.356769716043     -0.511940878826

 MD_VEL| Centre of mass motion (COM)
 MD_VEL| VCOM [a.u.]             -0.0000000001     0.0000000000     0.0000000001

 MD| ***************************************************************************
 MD| Step number                                                              10
 MD| Time [fs]                                                         20.000000
 MD| Conserved quantity [hartree]                            -0.471398974803E+03
 MD| ---------------------------------------------------------------------------
 MD|                                          Instantaneous             Averages
 MD| CPU time per MD step [s]                     30.032150            39.460360
 MD| Energy drift per atom [K]          -0.324827100577E+02  -0.204222178156E+02
 MD| Potential energy [hartree]         -0.471562189833E+03  -0.471517636291E+03
 MD| Kinetic energy [hartree]            0.834301867938E-01   0.715955264511E-01
 MD| Temperature [K]                             344.380887           295.530094
 MD| Pressure [bar]                     -1.089276269422E+03  -7.880209983099E+03
 MD| Barostat temperature [K]            3.197545231098E+04   2.230996837319E+04
 MD| Cell volume [bohr^3]                7.319628851957E+03   7.589299662210E+03
 MD| Cell volume [ang^3]                 1.084657075288E+03   1.124618165973E+03
 MD| ---------------------------------------------------------------------------
 MD| Cell lengths [bohr]          1.94161456E+01  1.94161456E+01  1.94161456E+01
 MD| Cell lengths [ang]           1.02745817E+01  1.02745817E+01  1.02745817E+01
 MD| Average cell lengths [bohr]  1.96393415E+01  1.96393415E+01  1.96393415E+01
 MD| Average cell lengths [ang]   1.03926919E+01  1.03926919E+01  1.03926919E+01
 MD| ***************************************************************************
 MD| Estimated peak process memory after this step [MiB]                     595

 -------------------------------------------------------------------------------
 -                                                                             -
 -                                DBCSR STATISTICS                             -
 -                                                                             -
 -------------------------------------------------------------------------------
 COUNTER                                    TOTAL       BLAS       SMM       ACC
 flops inhomo. stacks                           0       0.0%      0.0%      0.0%
 flops total                         0.000000E+00       0.0%      0.0%      0.0%
 flops max/rank                      0.000000E+00       0.0%      0.0%      0.0%
 matmuls inhomo. stacks                         0       0.0%      0.0%      0.0%
 matmuls total                                  0       0.0%      0.0%      0.0%
 number of processed stacks                     0       0.0%      0.0%      0.0%
 average stack size                                     0.0       0.0       0.0
 marketing flops                     0.000000E+00
 -------------------------------------------------------------------------------
 -                                                                             -
 -                      DBCSR MESSAGE PASSING PERFORMANCE                      -
 -                                                                             -
 -------------------------------------------------------------------------------
 ROUTINE             CALLS      AVE VOLUME [Bytes]
 MP_Bcast                1                     12.
 MP_Allreduce        39712                      8.
 MP_Alltoall         83856                  34805.
 -------------------------------------------------------------------------------

 -------------------------------------------------------------------------------
 -                                                                             -
 -                                DBM STATISTICS                               -
 -                                                                             -
 -------------------------------------------------------------------------------
    M  x    N  x    K                                          COUNT     PERCENT
 -------------------------------------------------------------------------------

 -------------------------------------------------------------------------------
 -                                                                             -
 -                                GRID STATISTICS                              -
 -                                                                             -
 -------------------------------------------------------------------------------
 LP    KERNEL             BACKEND                              COUNT     PERCENT
 3     collocate ortho    REF                                8448470      22.78%
 2     collocate ortho    REF                                8208953      22.14%
 3     integrate ortho    REF                                8008127      21.60%
 2     integrate ortho    REF                                7781481      20.98%
 4     collocate ortho    REF                                1846875       4.98%
 4     integrate ortho    REF                                1750693       4.72%
 6     integrate ortho    REF                                 440343       1.19%
 5     integrate ortho    REF                                 427472       1.15%
 7     integrate ortho    REF                                  96182       0.26%
 0     collocate general  REF                                  36608       0.10%
 0     integrate general  REF                                  18304       0.05%
 3     integrate general  REF                                  18304       0.05%
 -------------------------------------------------------------------------------

 MEMORY| Estimated peak process memory [MiB]                                 595

 -------------------------------------------------------------------------------
 ----                             MULTIGRID INFO                            ----
 -------------------------------------------------------------------------------
 count for grid        1:          85325          cutoff [a.u.]          500.00
 count for grid        2:         345775          cutoff [a.u.]          166.67
 count for grid        3:         270226          cutoff [a.u.]           55.56
 count for grid        4:         216819          cutoff [a.u.]           18.52
 total gridlevel count  :         918145

 -------------------------------------------------------------------------------
 -                                                                             -
 -                         MESSAGE PASSING PERFORMANCE                         -
 -                                                                             -
 -------------------------------------------------------------------------------

 ROUTINE             CALLS      AVE VOLUME [Bytes]
 MP_Group               45
 MP_Bcast            30395                  24210.
 MP_Allreduce        23250                    473.
 MP_Sync                44
 MP_Alltoall          4434               10603210.
 MP_ISendRecv        26536                  68680.
 MP_Wait             85416
 MP_ISend            57760                 218641.
 MP_IRecv            68920                 183240.
 MP_Recv             20820                 130048.
 -------------------------------------------------------------------------------


 -------------------------------------------------------------------------------
 -                                                                             -
 -                           R E F E R E N C E S                               -
 -                                                                             -
 -------------------------------------------------------------------------------
 
 CP2K version 2022.2, the CP2K developers group (2022).
 CP2K is freely available from https://www.cp2k.org/ .

 Kuehne,Thomas D.; Iannuzzi,Marcella; Del Ben,Mauro;
 Rybkin,Vladimir V.; Seewald,Patrick; Stein,Frederick; Laino,Teodoro;
 Khaliullin,Rustam Z.; Schuett,Ole; Schiffmann,Florian; Golze,Dorothea;
 Wilhelm,Jan; Chulkov,Sergey; Bani-Hashemian,Mohammad Hossein;
 Weber,Valery; Borstnik,Urban; Taillefumier,Mathieu;
 Jakobovits,Alice Shoshana; Lazzaro,Alfio; Pabst,Hans; Mueller,Tiziano;
 Schade,Robert; Guidon,Manuel; Andermatt,Samuel; Holmberg,Nico;
 Schenter,Gregory K.; Hehn,Anna; Bussy,Augustin; Belleflamme,Fabian;
 Tabacchi,Gloria; Gloess,Andreas; Lass,Michael; Bethune,Iain;
 Mundy,Christopher J.; Plessl,Christian; Watkins,Matt;
 VandeVondele,Joost; Krack,Matthias; Hutter,Juerg. 
 The Journal of Chemical Physics, 152 (19), (2020). 
 CP2K: An electronic structure and molecular dynamics software package -
 Quickstep: Efficient and accurate electronic structure calculations.
 https://doi.org/10.1063/5.0007045

 Togo, Atsushi; Tanaka, Isao. arXiv, 1808.01590 (2018). 
 Spglib : a software library for crystal symmetry search.
 https://doi.org/xxx

 Schuett, Ole; Messmer, Peter; Hutter, Juerg; VandeVondele, Joost. 
 Electronic Structure Calculations on Graphics Processing Units, John
 Wiley & Sons, Ltd, 173-190 (2016). 
 GPU-Accelerated Sparse Matrix-Matrix Multiplication for
 Linear Scaling Density Functional Theory.
 https://doi.org/10.1002/9781118670712.ch8

 Heinecke, A; Henry, G; Hutchinson, M; Pabst, H. 
 Proceedings of Intl. Supercomputing Conference, 981-991 (2016). 
 LIBXSMM: Accelerating Small Matrix Multiplications
 by Runtime Code Generation.
 https://doi.org/10.1109/SC.2016.83

 Borstnik, U; VandeVondele, J; Weber, V; Hutter, J. 
 PARALLEL COMPUTING, 40 (5-6), 47-58 (2014). 
 Sparse matrix multiplication: The distributed block-compressed sparse
 row library.
 https://doi.org/10.1016/j.parco.2014.03.012

 Hutter, J; Iannuzzi, M; Schiffmann, F; VandeVondele, J. 
 WIREs Comput Mol Sci., 4 (1), 15-25 (2014). 
 CP2K: atomistic simulations of condensed matter systems.
 https://doi.org/10.1002/wcms.1159

 Marek, A; Blum, V; Johanni, R; Havu, V; Lang, B; Auckenthaler, T;
 Heinecke, A; Bungartz, H; Lederer, H. 
 Journal of Physics: Condensed Matter, 26 (21), (2014). 
 The ELPA library: scalable parallel eigenvalue solutions for
 electronic structure
 theory and computational science.
 https://doi.org/10.1088/0953-8984/26/21/213201

 VandeVondele, J; Hutter, J. 
 JOURNAL OF CHEMICAL PHYSICS, 127 (11), 114105 (2007). 
 Gaussian basis sets for accurate calculations on molecular systems in
 gas and condensed phases.
 https://doi.org/10.1063/1.2770708

 Krack, M. 
 THEORETICAL CHEMISTRY ACCOUNTS, 114 (1-3), 145-152 (2005). 
 Pseudopotentials for H to Kr optimized for gradient-corrected
 exchange-correlation functionals.
 https://doi.org/10.1007/s00214-005-0655-y

 VandeVondele, J; Krack, M; Mohamed, F; Parrinello, M; Chassaing, T;
 Hutter, J. COMPUTER PHYSICS COMMUNICATIONS, 167 (2), 103-128 (2005). 
 QUICKSTEP: Fast and accurate density functional calculations using a
 mixed Gaussian and plane waves approach.
 https://doi.org/10.1016/j.cpc.2004.12.014

 Frigo, M; Johnson, SG. 
 PROCEEDINGS OF THE IEEE, 93 (2), 216-231 (2005). 
 The design and implementation of FFTW3.
 https://doi.org/10.1109/JPROC.2004.840301

 Hartwigsen, C; Goedecker, S; Hutter, J. 
 PHYSICAL REVIEW B, 58 (7), 3641-3662 (1998). 
 Relativistic separable dual-space Gaussian pseudopotentials from H to Rn.
 https://doi.org/10.1103/PhysRevB.58.3641

 Lippert, G; Hutter, J; Parrinello, M. 
 MOLECULAR PHYSICS, 92 (3), 477-487 (1997). 
 A hybrid Gaussian and plane wave density functional scheme.
 https://doi.org/10.1080/002689797170220

 Perdew, JP; Burke, K; Ernzerhof, M. 
 PHYSICAL REVIEW LETTERS, 77 (18), 3865-3868 (1996). 
 Generalized gradient approximation made simple.
 https://doi.org/10.1103/PhysRevLett.77.3865

 Goedecker, S; Teter, M; Hutter, J. 
 PHYSICAL REVIEW B, 54 (3), 1703-1710 (1996). 
 Separable dual-space Gaussian pseudopotentials.
 https://doi.org/10.1103/PhysRevB.54.1703

 NOSE, S. JOURNAL OF CHEMICAL PHYSICS, 81 (1), 511-519 (1984). 
 A UNIFIED FORMULATION OF THE CONSTANT TEMPERATURE MOLECULAR-DYNAMICS
 METHODS.
 https://doi.org/10.1063/1.447334

 NOSE, S. MOLECULAR PHYSICS, 52 (2), 255-268 (1984). 
 A MOLECULAR-DYNAMICS METHOD FOR SIMULATIONS IN THE CANONICAL ENSEMBLE.
 https://doi.org/10.1080/00268978400101201


 -------------------------------------------------------------------------------
 -                                                                             -
 -                                T I M I N G                                  -
 -                                                                             -
 -------------------------------------------------------------------------------
 SUBROUTINE                       CALLS  ASD         SELF TIME        TOTAL TIME
                                MAXIMUM       AVERAGE  MAXIMUM  AVERAGE  MAXIMUM
 CP2K                                 1  1.0    0.052    0.071  395.453  395.454
 qs_mol_dyn_low                       1  2.0    0.010    0.011  395.008  395.013
 qs_forces                           11  3.9    0.003    0.003  394.520  394.521
 qs_energies                         11  4.9    0.006    0.007  373.639  373.641
 velocity_verlet                     10  3.0    0.004    0.007  366.689  366.692
 scf_env_do_scf                      11  5.9    0.002    0.002  362.315  362.356
 scf_env_do_scf_inner_loop          203  6.9    0.028    0.041  362.313  362.353
 rebuild_ks_matrix                  214  8.8    0.001    0.001  211.091  211.117
 qs_ks_build_kohn_sham_matrix       214  9.8    0.059    0.065  211.090  211.116
 qs_ks_update_qs_env                203  7.9    0.001    0.002  195.406  195.438
 pw_transfer                       4269 12.8    0.258    0.280  106.970  109.141
 fft_wrap_pw1pw2                   3841 13.9    0.047    0.054  105.545  107.738
 fft_wrap_pw1pw2_500               2557 15.2    8.763    9.148  101.817  104.098
 sum_up_and_integrate               214 10.8    0.295    0.316  100.503  100.570
 integrate_v_rspace                 214 11.8    0.008    0.008  100.207  100.270
 qs_rho_update_rho_low              214  7.9    0.001    0.002   98.505   98.554
 calculate_rho_elec                 214  8.9    0.308    0.326   98.504   98.552
 qs_vxc_create                      214 10.8    0.005    0.010   95.010   95.527
 xc_vxc_pw_create                   214 11.8    3.942    4.500   95.005   95.522
 fft3d_ps                          3841 15.9   47.541   49.255   77.463   79.895
 grid_integrate_task_list           214 12.8   65.998   67.114   65.998   67.114
 xc_pw_derive                      1284 13.8    0.021    0.030   59.789   63.034
 grid_collocate_task_list           214  9.9   59.378   60.812   59.378   60.812
 xc_rho_set_and_dset_create         214 12.8    0.808    0.949   50.036   51.045
 rs_pw_transfer                    1756 12.3    0.032    0.037   42.848   44.451
 xc_pw_divergence                   214 12.8    0.012    0.016   39.693   42.196
 density_rs2pw                      214  9.9    0.015    0.021   38.083   39.681
 qs_scf_new_mos_kp                  203  7.9    0.002    0.003   32.493   32.508
 do_general_diag_kp                 203  8.9    0.028    0.034   32.491   32.505
 potential_pw2rs                    214 12.8    0.038    0.046   31.784   31.852
 gspace_mixing                      192  7.9    0.277    0.296   27.981   27.987
 broyden_mixing                     192  8.9   18.989   19.395   19.811   19.859
 cp_cfm_geeig                       203  9.9    0.005    0.011   19.642   19.762
 mp_alltoall_z22v                  3841 17.9   12.906   18.658   12.906   18.658
 xc_functional_eval                 214 13.8    0.003    0.007   17.629   18.548
 pbe_lda_eval                       214 14.8   17.627   18.546   17.627   18.546
 x_to_yz                           2118 17.0   10.767   11.867   16.974   17.769
 rs_pw_transfer_PW2RS_500           236 14.4   11.630   11.771   16.923   17.061
 qs_ks_update_qs_env_forces          11  4.9    0.000    0.000   17.003   17.009
 rs_pw_transfer_RS2PW_500           236 11.8    9.847   10.266   15.226   16.777
 yz_to_x                           1723 16.7    6.063    6.547   12.762   16.442
 cp_cfm_heevd                       203 10.9   15.054   15.131   15.054   15.131
 mp_waitany                       34200 14.2    9.683   11.726    9.683   11.726
 write_kpoints_restart              203  7.9    0.028    0.655   11.472   11.532
 copy_dbcsr_to_fm                  4636  9.6    0.050    0.057   10.006   11.256
 pw_scatter_p                      2118 16.0   10.631   11.164   10.631   11.164
 pw_gather_p                       1723 15.7    8.275    8.399    8.275    8.399
 dbcsr_desymmetrize_deep           7884 10.3    0.385    0.403    6.767    8.226
 -------------------------------------------------------------------------------

 The number of warnings for this run is : 0
 
 -------------------------------------------------------------------------------
  **** **** ******  **  PROGRAM ENDED AT                 2024-01-22 17:09:46.113
 ***** ** ***  *** **   PROGRAM RAN ON                     dp-lbg-11490-10720944
 **    ****   ******    PROGRAM RAN BY                                 <unknown>
 ***** **    ** ** **   PROGRAM PROCESS ID                                   244
  **** **  *******  **  PROGRAM STOPPED IN        /home/input_lbg-11490-10720944
