#     Step Nr.          Time[fs]        Kin.[a.u.]          Temp[K]            Pot.[a.u.]        Cons Qty[a.u.]        UsedTime[s]
         0            0.000000         0.072678412       300.000000000      -471.467751131      -471.393625732         0.000000000
         1            2.000000         0.072609047       299.713674604      -471.485381983      -471.395133394        55.020059540
         2            4.000000         0.071753194       296.180909312      -471.527940730      -471.398355605        27.860457810
         3            6.000000         0.069780769       288.039186773      -471.548726722      -471.399210648        32.044863564
         4            8.000000         0.067485955       278.566716484      -471.533312823      -471.397982721        34.191852224
         5           10.000000         0.066081521       272.769531434      -471.501693503      -471.396363657        45.251537911
         6           12.000000         0.066341846       273.844092331      -471.480335148      -471.395416867        46.371838502
         7           14.000000         0.068503793       282.768117952      -471.483849222      -471.395492992        46.298683251
         8           16.000000         0.072398303       298.843772502      -471.510021435      -471.396502928        45.101331789
         9           18.000000         0.077570650       320.194047050      -471.542911506      -471.397961532        32.430821072
        10           20.000000         0.083430187       344.380887050      -471.562189833      -471.398974803        30.032150401
