 DBCSR| CPU Multiplication driver                                           XSMM
 DBCSR| Multrec recursion limit                                              512
 DBCSR| Multiplication stack size                                           1000
 DBCSR| Maximum elements for images                                    UNLIMITED
 DBCSR| Multiplicative factor virtual images                                   1
 DBCSR| Use multiplication densification                                       T
 DBCSR| Multiplication size stacks                                             3
 DBCSR| Number of 3D layers                                               SINGLE
 DBCSR| Use MPI memory allocation                                              T
 DBCSR| Use RMA algorithm                                                      F
 DBCSR| Use Communication thread                                               T
 DBCSR| Communication thread load                                             87


  **** **** ******  **  PROGRAM STARTED AT               2021-07-19 16:47:22.408
 ***** ** ***  *** **   PROGRAM STARTED ON                               c52-036
 **    ****   ******    PROGRAM STARTED BY                                  jyhu
 ***** **    ** ** **   PROGRAM PROCESS ID                                 17986
  **** **  *******  **  PROGRAM STARTED IN /data/jyhu/1-CP2K/7-PrBaSrCoFeO/2-Dis
                                           order/1-bulk-dis/1-PBE+U-dis/4-4.0/pr
                                           int

 CP2K| version string:                                          CP2K version 7.1
 CP2K| source code revision number:                                  git:e635599
 CP2K| cp2kflags: libint fftw3 libxc elpa parallel mpi3 scalapack xsmm spglib   
 CP2K| is freely available from                            https://www.cp2k.org/
 CP2K| Program compiled at                           Mon Mar 8 20:53:19 CST 2021
 CP2K| Program compiled on                                                 mgt01
 CP2K| Program compiled for                                                local
 CP2K| Data directory path                                     /data/jyhu/basis/
 CP2K| Input file name                                                 input.inp

 GLOBAL| Force Environment number                                              1
 GLOBAL| Basis set file name                       /data/jyhu/basis/BASIS_MOLOPT
 GLOBAL| Potential file name                     /data/jyhu/basis/GTH_POTENTIALS
 GLOBAL| MM Potential file name                                     MM_POTENTIAL
 GLOBAL| Coordinate file name                                      __STD_INPUT__
 GLOBAL| Method name                                                        CP2K
 GLOBAL| Project name                                                        4.0
 GLOBAL| Preferred FFT library                                             FFTW3
 GLOBAL| Preferred diagonalization lib.                                     ELPA
 GLOBAL| Run type                                                   ENERGY_FORCE
 GLOBAL| All-to-all communication in single precision                          F
 GLOBAL| FFTs using library dependent lengths                                  F
 GLOBAL| Global print level                                               MEDIUM
 GLOBAL| MPI I/O enabled                                                       T
 GLOBAL| Total number of message passing processes                            84
 GLOBAL| Number of threads for this process                                    1
 GLOBAL| This output is from process                                           0
 GLOBAL| CPU model name                Intel(R) Xeon(R) CPU E5-2680 v4 @ 2.40GHz
 GLOBAL| CPUID                                                              1002

 MEMORY| system memory details [Kb]
 MEMORY|                        rank 0           min           max       average
 MEMORY| MemTotal             64964264      64964264      64964264      64964264
 MEMORY| MemFree              60943592      60349796      60943592      60672209
 MEMORY| Buffers                    16            16            28            20
 MEMORY| Cached                 126388        126388        433688        295673
 MEMORY| Slab                   449960        418844        609472        492758
 MEMORY| SReclaimable           140408        117076        183328        146937
 MEMORY| MemLikelyFree        61210404      60966828      61210404      61114840


 *** Fundamental physical constants (SI units) ***

 *** Literature: B. J. Mohr and B. N. Taylor,
 ***             CODATA recommended values of the fundamental physical
 ***             constants: 2006, Web Version 5.1
 ***             http://physics.nist.gov/constants

 Speed of light in vacuum [m/s]                             2.99792458000000E+08
 Magnetic constant or permeability of vacuum [N/A**2]       1.25663706143592E-06
 Electric constant or permittivity of vacuum [F/m]          8.85418781762039E-12
 Planck constant (h) [J*s]                                  6.62606896000000E-34
 Planck constant (h-bar) [J*s]                              1.05457162825177E-34
 Elementary charge [C]                                      1.60217648700000E-19
 Electron mass [kg]                                         9.10938215000000E-31
 Electron g factor [ ]                                     -2.00231930436220E+00
 Proton mass [kg]                                           1.67262163700000E-27
 Fine-structure constant                                    7.29735253760000E-03
 Rydberg constant [1/m]                                     1.09737315685270E+07
 Avogadro constant [1/mol]                                  6.02214179000000E+23
 Boltzmann constant [J/K]                                   1.38065040000000E-23
 Atomic mass unit [kg]                                      1.66053878200000E-27
 Bohr radius [m]                                            5.29177208590000E-11

 *** Conversion factors ***

 [u] -> [a.u.]                                              1.82288848426455E+03
 [Angstrom] -> [Bohr] = [a.u.]                              1.88972613288564E+00
 [a.u.] = [Bohr] -> [Angstrom]                              5.29177208590000E-01
 [a.u.] -> [s]                                              2.41888432650478E-17
 [a.u.] -> [fs]                                             2.41888432650478E-02
 [a.u.] -> [J]                                              4.35974393937059E-18
 [a.u.] -> [N]                                              8.23872205491840E-08
 [a.u.] -> [K]                                              3.15774647902944E+05
 [a.u.] -> [kJ/mol]                                         2.62549961709828E+03
 [a.u.] -> [kcal/mol]                                       6.27509468713739E+02
 [a.u.] -> [Pa]                                             2.94210107994716E+13
 [a.u.] -> [bar]                                            2.94210107994716E+08
 [a.u.] -> [atm]                                            2.90362800883016E+08
 [a.u.] -> [eV]                                             2.72113838565563E+01
 [a.u.] -> [Hz]                                             6.57968392072181E+15
 [a.u.] -> [1/cm] (wave numbers)                            2.19474631370540E+05
 [a.u./Bohr**2] -> [1/cm]                                   5.14048714338585E+03
 

 CELL_TOP| Volume [angstrom^3]:                                         1850.522
 CELL_TOP| Vector a [angstrom    15.548     0.000     0.000    |a| =      15.548
 CELL_TOP| Vector b [angstrom     0.000     7.774     0.000    |b| =       7.774
 CELL_TOP| Vector c [angstrom     0.000     0.000    15.310    |c| =      15.310
 CELL_TOP| Angle (b,c), alpha [degree]:                                   90.000
 CELL_TOP| Angle (a,c), beta  [degree]:                                   90.000
 CELL_TOP| Angle (a,b), gamma [degree]:                                   90.000
 CELL_TOP| Numerically orthorhombic:                                         YES

 CELL_UC| Volume [angstrom^3]:                                           231.315
 CELL_UC| Vector a [angstrom]     7.774     0.000     0.000    |a| =       7.774
 CELL_UC| Vector b [angstrom]     0.000     3.887     0.000    |b| =       3.887
 CELL_UC| Vector c [angstrom]     0.000     0.000     7.655    |c| =       7.655
 CELL_UC| Angle (b,c), alpha [degree]:                                    90.000
 CELL_UC| Angle (a,c), beta  [degree]:                                    90.000
 CELL_UC| Angle (a,b), gamma [degree]:                                    90.000
 CELL_UC| Numerically orthorhombic:                                          YES

 GENERATE|  Preliminary Number of Bonds generated:                             0
 GENERATE|  Achieved consistency in connectivity generation.

 CELL| Volume [angstrom^3]:                                             1850.522
 CELL| Vector a [angstrom]:      15.548     0.000     0.000    |a| =      15.548
 CELL| Vector b [angstrom]:       0.000     7.774     0.000    |b| =       7.774
 CELL| Vector c [angstrom]:       0.000     0.000    15.310    |c| =      15.310
 CELL| Angle (b,c), alpha [degree]:                                       90.000
 CELL| Angle (a,c), beta  [degree]:                                       90.000
 CELL| Angle (a,b), gamma [degree]:                                       90.000
 CELL| Numerically orthorhombic:                                             YES

 CELL_REF| Volume [angstrom^3]:                                         1850.522
 CELL_REF| Vector a [angstrom    15.548     0.000     0.000    |a| =      15.548
 CELL_REF| Vector b [angstrom     0.000     7.774     0.000    |b| =       7.774
 CELL_REF| Vector c [angstrom     0.000     0.000    15.310    |c| =      15.310
 CELL_REF| Angle (b,c), alpha [degree]:                                   90.000
 CELL_REF| Angle (a,c), beta  [degree]:                                   90.000
 CELL_REF| Angle (a,b), gamma [degree]:                                   90.000
 CELL_REF| Numerically orthorhombic:                                         YES

 *******************************************************************************
 *******************************************************************************
 **                                                                           **
 **     #####                         ##              ##                      **
 **    ##   ##            ##          ##              ##                      **
 **   ##     ##                       ##            ######                    **
 **   ##     ##  ##   ##  ##   #####  ##  ##   ####   ##    #####    #####    **
 **   ##     ##  ##   ##  ##  ##      ## ##   ##      ##   ##   ##  ##   ##   **
 **   ##  ## ##  ##   ##  ##  ##      ####     ###    ##   ######   ######    **
 **    ##  ###   ##   ##  ##  ##      ## ##      ##   ##   ##       ##        **
 **     #######   #####   ##   #####  ##  ##  ####    ##    #####   ##        **
 **           ##                                                    ##        **
 **                                                                           **
 **                                                ... make the atoms dance   **
 **                                                                           **
 **            Copyright (C) by CP2K developers group (2000 - 2019)           **
 **                                                                           **
 *******************************************************************************

 DFT| Spin unrestricted (spin-polarized) Kohn-Sham calculation               UKS
 DFT| Multiplicity                                                             1
 DFT| Number of spin states                                                    2
 DFT| Charge                                                                   0
 DFT| Self-interaction correction (SIC)                                       NO
 DFT| Cutoffs: density                                              1.000000E-10
 DFT|          gradient                                             1.000000E-10
 DFT|          tau                                                  1.000000E-10
 DFT|          cutoff_smoothing_range                               0.000000E+00
 DFT| XC density smoothing                                                  NONE
 DFT| XC derivatives                                                          PW

 DFT+U| Method                                                          MULLIKEN
 DFT+U| Check atomic kind information for details
 FUNCTIONAL| ROUTINE=NEW
 FUNCTIONAL| PBE:
 FUNCTIONAL| J.P.Perdew, K.Burke, M.Ernzerhof, Phys. Rev. Letter, vol. 77, n 18,
 FUNCTIONAL|  pp. 3865-3868, (1996){spin polarized}                             
 vdW POTENTIAL|                                                   Pair Potential
 vdW POTENTIAL|          DFT-D3 (Version 3.1)
 vdW POTENTIAL|          Potential Form: S. Grimme et al, JCP 132: 154104 (2010)
 vdW POTENTIAL|          Zero Damping
 vdW POTENTIAL|          Cutoff Radius [Bohr]:                             20.00
 vdW POTENTIAL|          s6 Scaling Factor:                               1.0000
 vdW POTENTIAL|          sr6 Scaling Factor:                              1.2170
 vdW POTENTIAL|          s8 Scaling Factor:                               0.7220
 vdW POTENTIAL|          Cutoff for CN calculation:                   0.1000E-05

 QS| Method:                                                                 GPW
 QS| Density plane wave grid type                        NON-SPHERICAL FULLSPACE
 QS| Number of grid levels:                                                    4
 QS| Density cutoff [a.u.]:                                                200.0
 QS| Multi grid cutoff [a.u.]: 1) grid level                               200.0
 QS|                           2) grid level                                66.7
 QS|                           3) grid level                                22.2
 QS|                           4) grid level                                 7.4
 QS| Grid level progression factor:                                          3.0
 QS| Relative density cutoff [a.u.]:                                        30.0
 QS| Consistent realspace mapping and integration 
 QS| Interaction thresholds: eps_pgf_orb:                                3.2E-07
 QS|                         eps_filter_matrix:                          0.0E+00
 QS|                         eps_core_charge:                            1.0E-15
 QS|                         eps_rho_gspace:                             1.0E-13
 QS|                         eps_rho_rspace:                             1.0E-13
 QS|                         eps_gvg_rspace:                             3.2E-07
 QS|                         eps_ppl:                                    1.0E-02
 QS|                         eps_ppnl:                                   3.2E-09


 ATOMIC KIND INFORMATION

  1. Atomic kind: O                                     Number of atoms:      96

     Orbital Basis Set                                        DZVP-MOLOPT-SR-GTH

       Number of orbital shell sets:                                           1
       Number of orbital shells:                                               5
       Number of primitive Cartesian functions:                                5
       Number of Cartesian basis functions:                                   14
       Number of spherical basis functions:                                   13
       Norm type:                                                              2

       Normalised Cartesian orbitals:

                        Set   Shell   Orbital            Exponent    Coefficient

                          1       1    2s               10.389228       0.396646
                                                         3.849621       0.208811
                                                         1.388401      -0.301641
                                                         0.496955      -0.274061
                                                         0.162492      -0.033677

                          1       2    3s               10.389228       0.303673
                                                         3.849621       0.240943
                                                         1.388401      -0.313066
                                                         0.496955      -0.043055
                                                         0.162492       0.213991

                          1       3    3px              10.389228      -1.530415
                                                         3.849621      -1.371928
                                                         1.388401      -0.761951
                                                         0.496955      -0.253695
                                                         0.162492      -0.035541
                          1       3    3py              10.389228      -1.530415
                                                         3.849621      -1.371928
                                                         1.388401      -0.761951
                                                         0.496955      -0.253695
                                                         0.162492      -0.035541
                          1       3    3pz              10.389228      -1.530415
                                                         3.849621      -1.371928
                                                         1.388401      -0.761951
                                                         0.496955      -0.253695
                                                         0.162492      -0.035541

                          1       4    4px              10.389228      -0.565392
                                                         3.849621      -0.038231
                                                         1.388401      -0.382373
                                                         0.496955       0.179070
                                                         0.162492       0.122714
                          1       4    4py              10.389228      -0.565392
                                                         3.849621      -0.038231
                                                         1.388401      -0.382373
                                                         0.496955       0.179070
                                                         0.162492       0.122714
                          1       4    4pz              10.389228      -0.565392
                                                         3.849621      -0.038231
                                                         1.388401      -0.382373
                                                         0.496955       0.179070
                                                         0.162492       0.122714

                          1       5    4dx2             10.389228       1.867377
                                                         3.849621       0.670994
                                                         1.388401       1.353441
                                                         0.496955       0.273538
                                                         0.162492       0.006620
                          1       5    4dxy             10.389228       3.234392
                                                         3.849621       1.162195
                                                         1.388401       2.344229
                                                         0.496955       0.473781
                                                         0.162492       0.011466
                          1       5    4dxz             10.389228       3.234392
                                                         3.849621       1.162195
                                                         1.388401       2.344229
                                                         0.496955       0.473781
                                                         0.162492       0.011466
                          1       5    4dy2             10.389228       1.867377
                                                         3.849621       0.670994
                                                         1.388401       1.353441
                                                         0.496955       0.273538
                                                         0.162492       0.006620
                          1       5    4dyz             10.389228       3.234392
                                                         3.849621       1.162195
                                                         1.388401       2.344229
                                                         0.496955       0.473781
                                                         0.162492       0.011466
                          1       5    4dz2             10.389228       1.867377
                                                         3.849621       0.670994
                                                         1.388401       1.353441
                                                         0.496955       0.273538
                                                         0.162492       0.006620

     GTH Potential information for                                    GTH-PBE-q6

       Description:                       Goedecker-Teter-Hutter pseudopotential
                                           Goedecker et al., PRB 54, 1703 (1996)
                                          Hartwigsen et al., PRB 58, 3641 (1998)
                                                      Krack, TCA 114, 145 (2005)

       Gaussian exponent of the core charge distribution:               8.360253
       Electronic configuration (s p d ...):                               2   4

       Parameters of the local part of the GTH pseudopotential:

                          rloc        C1          C2          C3          C4
                        0.244554  -16.667215    2.487311

       Parameters of the non-local part of the GTH pseudopotential:

                   l      r(l)      h(i,j,l)

                   0    0.220956   18.337458
                   1    0.211332

  2. Atomic kind: Pr                                    Number of atoms:      16

     Orbital Basis Set                                        DZVP-MOLOPT-SR-GTH

       Number of orbital shell sets:                                           1
       Number of orbital shells:                                              10
       Number of primitive Cartesian functions:                                7
       Number of Cartesian basis functions:                                   56
       Number of spherical basis functions:                                   42
       Norm type:                                                              2

       Normalised Cartesian orbitals:

                        Set   Shell   Orbital            Exponent    Coefficient

                          1       1    2s                4.514805      -0.064108
                                                         2.731340       0.109385
                                                         1.553557       0.321124
                                                         0.735410      -0.345029
                                                         0.310603      -0.195740
                                                         0.116778       0.041932
                                                         0.036813      -0.029206

                          1       2    3s                4.514805      -0.009584
                                                         2.731340       0.028537
                                                         1.553557       0.000753
                                                         0.735410      -0.011452
                                                         0.310603      -0.098277
                                                         0.116778       0.068802
                                                         0.036813       0.046088

                          1       3    4s                4.514805       0.071062
                                                         2.731340      -0.786097
                                                         1.553557       1.720522
                                                         0.735410      -0.375761
                                                         0.310603       0.017700
                                                         0.116778      -0.208343
                                                         0.036813       0.056215

                          1       4    3px               4.514805       0.208713
                                                         2.731340      -0.398012
                                                         1.553557      -0.484797
                                                         0.735410       0.598851
                                                         0.310603       0.222494
                                                         0.116778      -0.008494
                                                         0.036813      -0.004693
                          1       4    3py               4.514805       0.208713
                                                         2.731340      -0.398012
                                                         1.553557      -0.484797
                                                         0.735410       0.598851
                                                         0.310603       0.222494
                                                         0.116778      -0.008494
                                                         0.036813      -0.004693
                          1       4    3pz               4.514805       0.208713
                                                         2.731340      -0.398012
                                                         1.553557      -0.484797
                                                         0.735410       0.598851
                                                         0.310603       0.222494
                                                         0.116778      -0.008494
                                                         0.036813      -0.004693

                          1       5    4px               4.514805       0.041388
                                                         2.731340      -0.011156
                                                         1.553557      -0.277930
                                                         0.735410       0.096567
                                                         0.310603       0.029709
                                                         0.116778       0.052261
                                                         0.036813       0.010956
                          1       5    4py               4.514805       0.041388
                                                         2.731340      -0.011156
                                                         1.553557      -0.277930
                                                         0.735410       0.096567
                                                         0.310603       0.029709
                                                         0.116778       0.052261
                                                         0.036813       0.010956
                          1       5    4pz               4.514805       0.041388
                                                         2.731340      -0.011156
                                                         1.553557      -0.277930
                                                         0.735410       0.096567
                                                         0.310603       0.029709
                                                         0.116778       0.052261
                                                         0.036813       0.010956

                          1       6    4dx2              4.514805       0.032429
                                                         2.731340      -0.064604
                                                         1.553557      -0.240900
                                                         0.735410       0.281707
                                                         0.310603       0.119687
                                                         0.116778       0.013051
                                                         0.036813      -0.000062
                          1       6    4dxy              4.514805       0.056169
                                                         2.731340      -0.111898
                                                         1.553557      -0.417251
                                                         0.735410       0.487931
                                                         0.310603       0.207304
                                                         0.116778       0.022605
                                                         0.036813      -0.000107
                          1       6    4dxz              4.514805       0.056169
                                                         2.731340      -0.111898
                                                         1.553557      -0.417251
                                                         0.735410       0.487931
                                                         0.310603       0.207304
                                                         0.116778       0.022605
                                                         0.036813      -0.000107
                          1       6    4dy2              4.514805       0.032429
                                                         2.731340      -0.064604
                                                         1.553557      -0.240900
                                                         0.735410       0.281707
                                                         0.310603       0.119687
                                                         0.116778       0.013051
                                                         0.036813      -0.000062
                          1       6    4dyz              4.514805       0.056169
                                                         2.731340      -0.111898
                                                         1.553557      -0.417251
                                                         0.735410       0.487931
                                                         0.310603       0.207304
                                                         0.116778       0.022605
                                                         0.036813      -0.000107
                          1       6    4dz2              4.514805       0.032429
                                                         2.731340      -0.064604
                                                         1.553557      -0.240900
                                                         0.735410       0.281707
                                                         0.310603       0.119687
                                                         0.116778       0.013051
                                                         0.036813      -0.000062

                          1       7    5dx2              4.514805      -0.094580
                                                         2.731340       0.146571
                                                         1.553557      -0.304147
                                                         0.735410       0.258519
                                                         0.310603       0.046179
                                                         0.116778      -0.024148
                                                         0.036813      -0.002976
                          1       7    5dxy              4.514805      -0.163817
                                                         2.731340       0.253868
                                                         1.553557      -0.526798
                                                         0.735410       0.447768
                                                         0.310603       0.079985
                                                         0.116778      -0.041825
                                                         0.036813      -0.005155
                          1       7    5dxz              4.514805      -0.163817
                                                         2.731340       0.253868
                                                         1.553557      -0.526798
                                                         0.735410       0.447768
                                                         0.310603       0.079985
                                                         0.116778      -0.041825
                                                         0.036813      -0.005155
                          1       7    5dy2              4.514805      -0.094580
                                                         2.731340       0.146571
                                                         1.553557      -0.304147
                                                         0.735410       0.258519
                                                         0.310603       0.046179
                                                         0.116778      -0.024148
                                                         0.036813      -0.002976
                          1       7    5dyz              4.514805      -0.163817
                                                         2.731340       0.253868
                                                         1.553557      -0.526798
                                                         0.735410       0.447768
                                                         0.310603       0.079985
                                                         0.116778      -0.041825
                                                         0.036813      -0.005155
                          1       7    5dz2              4.514805      -0.094580
                                                         2.731340       0.146571
                                                         1.553557      -0.304147
                                                         0.735410       0.258519
                                                         0.310603       0.046179
                                                         0.116778      -0.024148
                                                         0.036813      -0.002976

                          1       8    5fx3              4.514805     -15.249054
                                                         2.731340      -3.852830
                                                         1.553557      -1.194914
                                                         0.735410      -0.097459
                                                         0.310603       0.023012
                                                         0.116778       0.003790
                                                         0.036813       0.000108
                          1       8    5fx2y             4.514805     -34.097922
                                                         2.731340      -8.615189
                                                         1.553557      -2.671909
                                                         0.735410      -0.217924
                                                         0.310603       0.051457
                                                         0.116778       0.008474
                                                         0.036813       0.000241
                          1       8    5fx2z             4.514805     -34.097922
                                                         2.731340      -8.615189
                                                         1.553557      -2.671909
                                                         0.735410      -0.217924
                                                         0.310603       0.051457
                                                         0.116778       0.008474
                                                         0.036813       0.000241
                          1       8    5fxy2             4.514805     -34.097922
                                                         2.731340      -8.615189
                                                         1.553557      -2.671909
                                                         0.735410      -0.217924
                                                         0.310603       0.051457
                                                         0.116778       0.008474
                                                         0.036813       0.000241
                          1       8    5fxyz             4.514805     -59.059334
                                                         2.731340     -14.921946
                                                         1.553557      -4.627883
                                                         0.735410      -0.377456
                                                         0.310603       0.089126
                                                         0.116778       0.014678
                                                         0.036813       0.000418
                          1       8    5fxz2             4.514805     -34.097922
                                                         2.731340      -8.615189
                                                         1.553557      -2.671909
                                                         0.735410      -0.217924
                                                         0.310603       0.051457
                                                         0.116778       0.008474
                                                         0.036813       0.000241
                          1       8    5fy3              4.514805     -15.249054
                                                         2.731340      -3.852830
                                                         1.553557      -1.194914
                                                         0.735410      -0.097459
                                                         0.310603       0.023012
                                                         0.116778       0.003790
                                                         0.036813       0.000108
                          1       8    5fy2z             4.514805     -34.097922
                                                         2.731340      -8.615189
                                                         1.553557      -2.671909
                                                         0.735410      -0.217924
                                                         0.310603       0.051457
                                                         0.116778       0.008474
                                                         0.036813       0.000241
                          1       8    5fyz2             4.514805     -34.097922
                                                         2.731340      -8.615189
                                                         1.553557      -2.671909
                                                         0.735410      -0.217924
                                                         0.310603       0.051457
                                                         0.116778       0.008474
                                                         0.036813       0.000241
                          1       8    5fz3              4.514805     -15.249054
                                                         2.731340      -3.852830
                                                         1.553557      -1.194914
                                                         0.735410      -0.097459
                                                         0.310603       0.023012
                                                         0.116778       0.003790
                                                         0.036813       0.000108

                          1       9    6fx3              4.514805      -9.535627
                                                         2.731340      -2.073290
                                                         1.553557      -0.583042
                                                         0.735410      -0.183061
                                                         0.310603      -0.037897
                                                         0.116778      -0.003739
                                                         0.036813      -0.000090
                          1       9    6fx2y             4.514805     -21.322311
                                                         2.731340      -4.636018
                                                         1.553557      -1.303722
                                                         0.735410      -0.409338
                                                         0.310603      -0.084741
                                                         0.116778      -0.008360
                                                         0.036813      -0.000201
                          1       9    6fx2z             4.514805     -21.322311
                                                         2.731340      -4.636018
                                                         1.553557      -1.303722
                                                         0.735410      -0.409338
                                                         0.310603      -0.084741
                                                         0.116778      -0.008360
                                                         0.036813      -0.000201
                          1       9    6fxy2             4.514805     -21.322311
                                                         2.731340      -4.636018
                                                         1.553557      -1.303722
                                                         0.735410      -0.409338
                                                         0.310603      -0.084741
                                                         0.116778      -0.008360
                                                         0.036813      -0.000201
                          1       9    6fxyz             4.514805     -36.931326
                                                         2.731340      -8.029819
                                                         1.553557      -2.258113
                                                         0.735410      -0.708994
                                                         0.310603      -0.146776
                                                         0.116778      -0.014479
                                                         0.036813      -0.000349
                          1       9    6fxz2             4.514805     -21.322311
                                                         2.731340      -4.636018
                                                         1.553557      -1.303722
                                                         0.735410      -0.409338
                                                         0.310603      -0.084741
                                                         0.116778      -0.008360
                                                         0.036813      -0.000201
                          1       9    6fy3              4.514805      -9.535627
                                                         2.731340      -2.073290
                                                         1.553557      -0.583042
                                                         0.735410      -0.183061
                                                         0.310603      -0.037897
                                                         0.116778      -0.003739
                                                         0.036813      -0.000090
                          1       9    6fy2z             4.514805     -21.322311
                                                         2.731340      -4.636018
                                                         1.553557      -1.303722
                                                         0.735410      -0.409338
                                                         0.310603      -0.084741
                                                         0.116778      -0.008360
                                                         0.036813      -0.000201
                          1       9    6fyz2             4.514805     -21.322311
                                                         2.731340      -4.636018
                                                         1.553557      -1.303722
                                                         0.735410      -0.409338
                                                         0.310603      -0.084741
                                                         0.116778      -0.008360
                                                         0.036813      -0.000201
                          1       9    6fz3              4.514805      -9.535627
                                                         2.731340      -2.073290
                                                         1.553557      -0.583042
                                                         0.735410      -0.183061
                                                         0.310603      -0.037897
                                                         0.116778      -0.003739
                                                         0.036813      -0.000090

                          1      10    6gx4              4.514805      -0.355602
                                                         2.731340       0.252371
                                                         1.553557      -0.094660
                                                         0.735410       0.073572
                                                         0.310603       0.020691
                                                         0.116778       0.001511
                                                         0.036813       0.000030
                          1      10    6gx3y             4.514805      -0.940834
                                                         2.731340       0.667711
                                                         1.553557      -0.250447
                                                         0.735410       0.194654
                                                         0.310603       0.054743
                                                         0.116778       0.003999
                                                         0.036813       0.000079
                          1      10    6gx3z             4.514805      -0.940834
                                                         2.731340       0.667711
                                                         1.553557      -0.250447
                                                         0.735410       0.194654
                                                         0.310603       0.054743
                                                         0.116778       0.003999
                                                         0.036813       0.000079
                          1      10    6gx2y2            4.514805      -1.214612
                                                         2.731340       0.862011
                                                         1.553557      -0.323326
                                                         0.735410       0.251297
                                                         0.310603       0.070673
                                                         0.116778       0.005162
                                                         0.036813       0.000102
                          1      10    6gx2yz            4.514805      -2.103770
                                                         2.731340       1.493047
                                                         1.553557      -0.560016
                                                         0.735410       0.435260
                                                         0.310603       0.122410
                                                         0.116778       0.008941
                                                         0.036813       0.000177
                          1      10    6gx2z2            4.514805      -1.214612
                                                         2.731340       0.862011
                                                         1.553557      -0.323326
                                                         0.735410       0.251297
                                                         0.310603       0.070673
                                                         0.116778       0.005162
                                                         0.036813       0.000102
                          1      10    6gxy3             4.514805      -0.940834
                                                         2.731340       0.667711
                                                         1.553557      -0.250447
                                                         0.735410       0.194654
                                                         0.310603       0.054743
                                                         0.116778       0.003999
                                                         0.036813       0.000079
                          1      10    6gxy2z            4.514805      -2.103770
                                                         2.731340       1.493047
                                                         1.553557      -0.560016
                                                         0.735410       0.435260
                                                         0.310603       0.122410
                                                         0.116778       0.008941
                                                         0.036813       0.000177
                          1      10    6gxyz2            4.514805      -2.103770
                                                         2.731340       1.493047
                                                         1.553557      -0.560016
                                                         0.735410       0.435260
                                                         0.310603       0.122410
                                                         0.116778       0.008941
                                                         0.036813       0.000177
                          1      10    6gxz3             4.514805      -0.940834
                                                         2.731340       0.667711
                                                         1.553557      -0.250447
                                                         0.735410       0.194654
                                                         0.310603       0.054743
                                                         0.116778       0.003999
                                                         0.036813       0.000079
                          1      10    6gy4              4.514805      -0.355602
                                                         2.731340       0.252371
                                                         1.553557      -0.094660
                                                         0.735410       0.073572
                                                         0.310603       0.020691
                                                         0.116778       0.001511
                                                         0.036813       0.000030
                          1      10    6gy3z             4.514805      -0.940834
                                                         2.731340       0.667711
                                                         1.553557      -0.250447
                                                         0.735410       0.194654
                                                         0.310603       0.054743
                                                         0.116778       0.003999
                                                         0.036813       0.000079
                          1      10    6gy2z2            4.514805      -1.214612
                                                         2.731340       0.862011
                                                         1.553557      -0.323326
                                                         0.735410       0.251297
                                                         0.310603       0.070673
                                                         0.116778       0.005162
                                                         0.036813       0.000102
                          1      10    6gyz3             4.514805      -0.940834
                                                         2.731340       0.667711
                                                         1.553557      -0.250447
                                                         0.735410       0.194654
                                                         0.310603       0.054743
                                                         0.116778       0.003999
                                                         0.036813       0.000079
                          1      10    6gz4              4.514805      -0.355602
                                                         2.731340       0.252371
                                                         1.553557      -0.094660
                                                         0.735410       0.073572
                                                         0.310603       0.020691
                                                         0.116778       0.001511
                                                         0.036813       0.000030

     GTH Potential information for                                   GTH-PBE-q13

       Description:                       Goedecker-Teter-Hutter pseudopotential
                                           Goedecker et al., PRB 54, 1703 (1996)
                                          Hartwigsen et al., PRB 58, 3641 (1998)
                                                      Krack, TCA 114, 145 (2005)

       Gaussian exponent of the core charge distribution:               1.767367
       Electronic configuration (s p d ...):                       4   6   0   3

       Parameters of the local part of the GTH pseudopotential:

                          rloc        C1          C2          C3          C4
                        0.531890   16.835514   -0.432356

       Parameters of the non-local part of the GTH pseudopotential:

                   l      r(l)      h(i,j,l)

                   0    0.524151   -0.509754    1.840378
                                    1.840378   -2.375918
                   1    0.485467   -0.981896    1.604459
                                    1.604459   -1.898422
                   2    0.716533    0.055750
                   3    0.299373  -17.495501

  3. Atomic kind: Co                                    Number of atoms:      24

     Orbital Basis Set                                        DZVP-MOLOPT-SR-GTH

       Number of orbital shell sets:                                           1
       Number of orbital shells:                                               8
       Number of primitive Cartesian functions:                                6
       Number of Cartesian basis functions:                                   31
       Number of spherical basis functions:                                   26
       Norm type:                                                              2

       Normalised Cartesian orbitals:

                        Set   Shell   Orbital            Exponent    Coefficient

                          1       1    2s                8.365268       1.064825
                                                         4.376458       0.104866
                                                         1.999998      -0.862858
                                                         0.834300      -0.262031
                                                         0.307482      -0.018089
                                                         0.095840      -0.010281

                          1       2    3s                8.365268       0.314661
                                                         4.376458       0.067973
                                                         1.999998      -0.381507
                                                         0.834300      -0.269316
                                                         0.307482       0.083179
                                                         0.095840       0.115036

                          1       3    4s                8.365268      -0.139380
                                                         4.376458       0.299832
                                                         1.999998       0.115427
                                                         0.834300       0.879401
                                                         0.307482      -0.824138
                                                         0.095840       0.204433

                          1       4    3px               8.365268       1.285965
                                                         4.376458      -2.371337
                                                         1.999998      -1.725706
                                                         0.834300      -0.389232
                                                         0.307482      -0.014707
                                                         0.095840       0.000199
                          1       4    3py               8.365268       1.285965
                                                         4.376458      -2.371337
                                                         1.999998      -1.725706
                                                         0.834300      -0.389232
                                                         0.307482      -0.014707
                                                         0.095840       0.000199
                          1       4    3pz               8.365268       1.285965
                                                         4.376458      -2.371337
                                                         1.999998      -1.725706
                                                         0.834300      -0.389232
                                                         0.307482      -0.014707
                                                         0.095840       0.000199

                          1       5    4px               8.365268      -0.139636
                                                         4.376458      -0.041761
                                                         1.999998      -0.203152
                                                         0.834300      -0.062856
                                                         0.307482       0.217329
                                                         0.095840       0.036248
                          1       5    4py               8.365268      -0.139636
                                                         4.376458      -0.041761
                                                         1.999998      -0.203152
                                                         0.834300      -0.062856
                                                         0.307482       0.217329
                                                         0.095840       0.036248
                          1       5    4pz               8.365268      -0.139636
                                                         4.376458      -0.041761
                                                         1.999998      -0.203152
                                                         0.834300      -0.062856
                                                         0.307482       0.217329
                                                         0.095840       0.036248

                          1       6    4dx2              8.365268      10.317377
                                                         4.376458       5.299795
                                                         1.999998       1.799234
                                                         0.834300       0.387793
                                                         0.307482       0.052793
                                                         0.095840       0.001852
                          1       6    4dxy              8.365268      17.870222
                                                         4.376458       9.179514
                                                         1.999998       3.116365
                                                         0.834300       0.671678
                                                         0.307482       0.091440
                                                         0.095840       0.003207
                          1       6    4dxz              8.365268      17.870222
                                                         4.376458       9.179514
                                                         1.999998       3.116365
                                                         0.834300       0.671678
                                                         0.307482       0.091440
                                                         0.095840       0.003207
                          1       6    4dy2              8.365268      10.317377
                                                         4.376458       5.299795
                                                         1.999998       1.799234
                                                         0.834300       0.387793
                                                         0.307482       0.052793
                                                         0.095840       0.001852
                          1       6    4dyz              8.365268      17.870222
                                                         4.376458       9.179514
                                                         1.999998       3.116365
                                                         0.834300       0.671678
                                                         0.307482       0.091440
                                                         0.095840       0.003207
                          1       6    4dz2              8.365268      10.317377
                                                         4.376458       5.299795
                                                         1.999998       1.799234
                                                         0.834300       0.387793
                                                         0.307482       0.052793
                                                         0.095840       0.001852

                          1       7    5dx2              8.365268      -6.769324
                                                         4.376458      -3.376985
                                                         1.999998      -1.595477
                                                         0.834300       0.024020
                                                         0.307482       0.083232
                                                         0.095840       0.017285
                          1       7    5dxy              8.365268     -11.724813
                                                         4.376458      -5.849110
                                                         1.999998      -2.763447
                                                         0.834300       0.041604
                                                         0.307482       0.144162
                                                         0.095840       0.029938
                          1       7    5dxz              8.365268     -11.724813
                                                         4.376458      -5.849110
                                                         1.999998      -2.763447
                                                         0.834300       0.041604
                                                         0.307482       0.144162
                                                         0.095840       0.029938
                          1       7    5dy2              8.365268      -6.769324
                                                         4.376458      -3.376985
                                                         1.999998      -1.595477
                                                         0.834300       0.024020
                                                         0.307482       0.083232
                                                         0.095840       0.017285
                          1       7    5dyz              8.365268     -11.724813
                                                         4.376458      -5.849110
                                                         1.999998      -2.763447
                                                         0.834300       0.041604
                                                         0.307482       0.144162
                                                         0.095840       0.029938
                          1       7    5dz2              8.365268      -6.769324
                                                         4.376458      -3.376985
                                                         1.999998      -1.595477
                                                         0.834300       0.024020
                                                         0.307482       0.083232
                                                         0.095840       0.017285

                          1       8    5fx3              8.365268      -0.608021
                                                         4.376458      -0.793512
                                                         1.999998      -0.517880
                                                         0.834300      -0.502812
                                                         0.307482      -0.065982
                                                         0.095840       0.003032
                          1       8    5fx2y             8.365268      -1.359576
                                                         4.376458      -1.774347
                                                         1.999998      -1.158014
                                                         0.834300      -1.124322
                                                         0.307482      -0.147540
                                                         0.095840       0.006781
                          1       8    5fx2z             8.365268      -1.359576
                                                         4.376458      -1.774347
                                                         1.999998      -1.158014
                                                         0.834300      -1.124322
                                                         0.307482      -0.147540
                                                         0.095840       0.006781
                          1       8    5fxy2             8.365268      -1.359576
                                                         4.376458      -1.774347
                                                         1.999998      -1.158014
                                                         0.834300      -1.124322
                                                         0.307482      -0.147540
                                                         0.095840       0.006781
                          1       8    5fxyz             8.365268      -2.354856
                                                         4.376458      -3.073258
                                                         1.999998      -2.005739
                                                         0.834300      -1.947383
                                                         0.307482      -0.255547
                                                         0.095840       0.011745
                          1       8    5fxz2             8.365268      -1.359576
                                                         4.376458      -1.774347
                                                         1.999998      -1.158014
                                                         0.834300      -1.124322
                                                         0.307482      -0.147540
                                                         0.095840       0.006781
                          1       8    5fy3              8.365268      -0.608021
                                                         4.376458      -0.793512
                                                         1.999998      -0.517880
                                                         0.834300      -0.502812
                                                         0.307482      -0.065982
                                                         0.095840       0.003032
                          1       8    5fy2z             8.365268      -1.359576
                                                         4.376458      -1.774347
                                                         1.999998      -1.158014
                                                         0.834300      -1.124322
                                                         0.307482      -0.147540
                                                         0.095840       0.006781
                          1       8    5fyz2             8.365268      -1.359576
                                                         4.376458      -1.774347
                                                         1.999998      -1.158014
                                                         0.834300      -1.124322
                                                         0.307482      -0.147540
                                                         0.095840       0.006781
                          1       8    5fz3              8.365268      -0.608021
                                                         4.376458      -0.793512
                                                         1.999998      -0.517880
                                                         0.834300      -0.502812
                                                         0.307482      -0.065982
                                                         0.095840       0.003032

     GTH Potential information for                                   GTH-PBE-q17

       Description:                       Goedecker-Teter-Hutter pseudopotential
                                           Goedecker et al., PRB 54, 1703 (1996)
                                          Hartwigsen et al., PRB 58, 3641 (1998)
                                                      Krack, TCA 114, 145 (2005)

       Gaussian exponent of the core charge distribution:               3.967467
       Electronic configuration (s p d ...):                           4   6   7

       Parameters of the local part of the GTH pseudopotential:

                          rloc        C1          C2          C3          C4
                        0.355000    4.828197    0.368143

       Parameters of the non-local part of the GTH pseudopotential:

                   l      r(l)      h(i,j,l)

                   0    0.276801   -0.584496    9.286293
                                    9.286293  -11.988552
                   1    0.268158   -6.851953    5.680133
                                    5.680133   -6.720824
                   2    0.222584  -12.333150

     A DFT+U correction is applied to atoms of this atomic kind:
       Angular quantum momentum number L:                                      2
       U(eff) = (U - J) value in [eV]:                                     4.000

  4. Atomic kind: Ba                                    Number of atoms:       8

     Orbital Basis Set                                        DZVP-MOLOPT-SR-GTH

       Number of orbital shell sets:                                           1
       Number of orbital shells:                                               6
       Number of primitive Cartesian functions:                                6
       Number of Cartesian basis functions:                                   15
       Number of spherical basis functions:                                   14
       Norm type:                                                              2

       Normalised Cartesian orbitals:

                        Set   Shell   Orbital            Exponent    Coefficient

                          1       1    2s                1.099107      -0.430867
                                                         1.042416      -0.854508
                                                         0.923816       0.760468
                                                         0.409515       0.453932
                                                         0.166001       0.044269
                                                         0.038868      -0.012893

                          1       2    3s                1.099107       0.081085
                                                         1.042416       0.177634
                                                         0.923816      -0.100271
                                                         0.409515      -0.240951
                                                         0.166001       0.011828
                                                         0.038868       0.068957

                          1       3    4s                1.099107       0.178735
                                                         1.042416      -0.270304
                                                         0.923816       0.515494
                                                         0.409515      -1.125192
                                                         0.166001       0.529840
                                                         0.038868      -0.070468

                          1       4    3px               1.099107      -0.356890
                                                         1.042416       2.552633
                                                         0.923816      -1.937098
                                                         0.409515      -0.272956
                                                         0.166001      -0.057128
                                                         0.038868       0.000121
                          1       4    3py               1.099107      -0.356890
                                                         1.042416       2.552633
                                                         0.923816      -1.937098
                                                         0.409515      -0.272956
                                                         0.166001      -0.057128
                                                         0.038868       0.000121
                          1       4    3pz               1.099107      -0.356890
                                                         1.042416       2.552633
                                                         0.923816      -1.937098
                                                         0.409515      -0.272956
                                                         0.166001      -0.057128
                                                         0.038868       0.000121

                          1       5    4px               1.099107       0.314401
                                                         1.042416       0.065806
                                                         0.923816      -0.182576
                                                         0.409515      -0.233861
                                                         0.166001       0.002473
                                                         0.038868       0.024926
                          1       5    4py               1.099107       0.314401
                                                         1.042416       0.065806
                                                         0.923816      -0.182576
                                                         0.409515      -0.233861
                                                         0.166001       0.002473
                                                         0.038868       0.024926
                          1       5    4pz               1.099107       0.314401
                                                         1.042416       0.065806
                                                         0.923816      -0.182576
                                                         0.409515      -0.233861
                                                         0.166001       0.002473
                                                         0.038868       0.024926

                          1       6    4dx2              1.099107       0.365343
                                                         1.042416      -0.037800
                                                         0.923816      -0.191712
                                                         0.409515      -0.156766
                                                         0.166001      -0.038254
                                                         0.038868      -0.001161
                          1       6    4dxy              1.099107       0.632793
                                                         1.042416      -0.065471
                                                         0.923816      -0.332054
                                                         0.409515      -0.271527
                                                         0.166001      -0.066258
                                                         0.038868      -0.002011
                          1       6    4dxz              1.099107       0.632793
                                                         1.042416      -0.065471
                                                         0.923816      -0.332054
                                                         0.409515      -0.271527
                                                         0.166001      -0.066258
                                                         0.038868      -0.002011
[...]
 flops   494 x    32 x    65            295925760       0.0%    100.0%      0.0%
 flops   503 x    32 x    65            301317120       0.0%    100.0%      0.0%
 flops   505 x    32 x    65            302515200       0.0%    100.0%      0.0%
 flops   511 x    32 x    65            306109440       0.0%    100.0%      0.0%
 flops    14 x    32 x    32            320495616       0.0%    100.0%      0.0%
 flops    32 x    32 x    52            352714752       0.0%    100.0%      0.0%
 flops   100 x    64 x    65            404352000       0.0%    100.0%      0.0%
 flops    32 x    32 x    65            514375680       0.0%    100.0%      0.0%
 flops   128 x    64 x    40            530841600       0.0%    100.0%      0.0%
 flops   480 x    32 x    32            542638080       0.0%    100.0%      0.0%
 flops   483 x    32 x    32            546029568       0.0%    100.0%      0.0%
 flops   494 x    32 x    32            558465024       0.0%    100.0%      0.0%
 flops   503 x    32 x    32            568639488       0.0%    100.0%      0.0%
 flops   505 x    32 x    32            570900480       0.0%    100.0%      0.0%
 flops   480 x    64 x    52            575078400       0.0%    100.0%      0.0%
 flops   128 x    32 x    65            575078400       0.0%    100.0%      0.0%
 flops   511 x    32 x    32            577683456       0.0%    100.0%      0.0%
 flops   483 x    64 x    52            578672640       0.0%    100.0%      0.0%
 flops   494 x    64 x    52            591851520       0.0%    100.0%      0.0%
 flops   503 x    64 x    52            602634240       0.0%    100.0%      0.0%
 flops   505 x    64 x    52            605030400       0.0%    100.0%      0.0%
 flops    42 x    14 x    32            609337344       0.0%    100.0%      0.0%
 flops   511 x    64 x    52            612218880       0.0%    100.0%      0.0%
 flops    14 x    42 x    32            630110208       0.0%    100.0%      0.0%
 flops    14 x    26 x    32            831574016       0.0%    100.0%      0.0%
 flops    14 x    32 x    14            844763136       0.0%    100.0%      0.0%
 flops    26 x    14 x    32            994459648       0.0%    100.0%      0.0%
 flops   128 x    64 x    32           1085276160       0.0%    100.0%      0.0%
 flops   128 x    64 x    52           1150156800       0.0%    100.0%      0.0%
 flops   480 x    64 x    65           1293926400       0.0%    100.0%      0.0%
 flops   483 x    64 x    65           1302013440       0.0%    100.0%      0.0%
 flops   494 x    64 x    65           1331665920       0.0%    100.0%      0.0%
 flops    14 x    13 x    32           1337376768       0.0%    100.0%      0.0%
 flops   503 x    64 x    65           1355927040       0.0%    100.0%      0.0%
 flops   505 x    64 x    65           1361318400       0.0%    100.0%      0.0%
 flops   511 x    64 x    65           1377492480       0.0%    100.0%      0.0%
 flops    42 x    32 x    32           1408598016       0.0%    100.0%      0.0%
 flops    13 x    14 x    32           1646002176       0.0%    100.0%      0.0%
 flops    42 x    42 x    32           1703374848       0.0%    100.0%      0.0%
 flops    26 x    32 x    32           1704787968       0.0%    100.0%      0.0%
 flops    42 x    26 x    32           2134659072       0.0%    100.0%      0.0%
 flops   480 x    64 x    32           2441871360       0.0%    100.0%      0.0%
 flops   483 x    64 x    32           2457133056       0.0%    100.0%      0.0%
 flops    42 x    32 x    14           2506592256       0.0%    100.0%      0.0%
 flops   494 x    64 x    32           2513092608       0.0%    100.0%      0.0%
 flops   503 x    64 x    32           2558877696       0.0%    100.0%      0.0%
 flops   505 x    64 x    32           2569052160       0.0%    100.0%      0.0%
 flops   128 x    64 x    65           2587852800       0.0%    100.0%      0.0%
 flops   511 x    64 x    32           2599575552       0.0%    100.0%      0.0%
 flops    26 x    42 x    32           2610456576       0.0%    100.0%      0.0%
 flops    13 x    32 x    32           2821718016       0.0%    100.0%      0.0%
 flops    14 x    32 x    26           3137691648       0.0%    100.0%      0.0%
 flops    42 x    13 x    32           3401309184       0.0%    100.0%      0.0%
 flops    26 x    26 x    32           3574298624       0.0%    100.0%      0.0%
 flops    26 x    32 x    14           3729223680       0.0%    100.0%      0.0%
 flops    13 x    42 x    32           4307896320       0.0%    100.0%      0.0%
 flops    14 x    32 x    13           4706537472       0.0%    100.0%      0.0%
 flops    26 x    13 x    32           5540560896       0.0%    100.0%      0.0%
 flops    13 x    26 x    32           5731614720       0.0%    100.0%      0.0%
 flops    13 x    32 x    14           6172508160       0.0%    100.0%      0.0%
 flops    13 x    13 x    32           9122820096       0.0%    100.0%      0.0%
 flops    42 x    32 x    26           9310199808       0.0%    100.0%      0.0%
 flops    26 x    32 x    26          13851402240       0.0%    100.0%      0.0%
 flops    42 x    32 x    13          13965299712       0.0%    100.0%      0.0%
 flops    26 x    32 x    13          20777103360       0.0%    100.0%      0.0%
 flops    13 x    32 x    26          22926458880       0.0%    100.0%      0.0%
 flops    13 x    32 x    13          33673236480       0.0%    100.0%      0.0%
 flops inhomo. stacks                259983379008     100.0%      0.0%      0.0%
 flops total                       492.978884E+09      52.7%     47.3%      0.0%
 flops max/rank                      8.315368E+09      55.4%     44.6%      0.0%
 matmuls inhomo. stacks                   1754184     100.0%      0.0%      0.0%
 matmuls total                           11874624      14.8%     85.2%      0.0%
 number of processed stacks                589512      15.3%     84.7%      0.0%
 average stack size                                    19.5      20.3       0.0
 marketing flops                   420.716020E+09
 -------------------------------------------------------------------------------
 # multiplications                             49
 max memory usage/rank             170.897408E+06
 # max total images/rank                        7
 # max 3D layers                                1
 # MPI messages exchanged                  304584
 MPI messages size (bytes):
  total size                        26.822801E+09
  min size                           0.000000E+00
  max size                         502.824000E+03
  average size                      88.063727E+03
 MPI breakdown and total messages size (bytes):
             size <=      128               68842                     1280
       128 < size <=     8192                6246                 45176320
      8192 < size <=    32768               59194               1206596608
     32768 < size <=   131072              108058               8121044992
    131072 < size <=  4194304               62244              17449975296
   4194304 < size <= 16777216                   0                        0
  16777216 < size                               0                        0
 -------------------------------------------------------------------------------

 *** WARNING in dbcsr_mm.F:295 :: Using a non-square number of MPI ranks ***
 *** might lead to poor performance. Used ranks: 84 Suggested: 81 169    ***

 -------------------------------------------------------------------------------
 -                                                                             -
 -                      DBCSR MESSAGE PASSING PERFORMANCE                      -
 -                                                                             -
 -------------------------------------------------------------------------------
 ROUTINE             CALLS      AVE VOLUME [Bytes]
 MP_Group               18
 MP_Bcast              205                     12.
 MP_Allreduce          652                     20.
 MP_Alltoall           463                 110225.
 MP_Wait              4704
 MP_ISend             7734                  43409.
 MP_IRecv             7728                  42774.
 MP_Memory            8358
 -------------------------------------------------------------------------------

 MEMORY| Estimated peak process memory [MiB]                                 164

 -------------------------------------------------------------------------------
 ----                             MULTIGRID INFO                            ----
 -------------------------------------------------------------------------------
 count for grid        1:       13566728          cutoff [a.u.]          200.00
 count for grid        2:        6319480          cutoff [a.u.]           66.67
 count for grid        3:        2819432          cutoff [a.u.]           22.22
 count for grid        4:        1034632          cutoff [a.u.]            7.41
 total gridlevel count  :       23740272

 -------------------------------------------------------------------------------
 -                                                                             -
 -                         MESSAGE PASSING PERFORMANCE                         -
 -                                                                             -
 -------------------------------------------------------------------------------

 ROUTINE             CALLS      AVE VOLUME [Bytes]
 MP_Group                4
 MP_Bcast             2759                 449497.
 MP_Allreduce         3486                   1003.
 MP_Sync                 4
 MP_Alltoall           110               23093571.
 MP_SendRecv           332                  10096.
 MP_ISendRecv         1328                   9408.
 MP_Wait              1925
 MP_ISend              468                 189782.
 MP_IRecv              468                 189887.
 MP_Recv                46                 761856.
 -------------------------------------------------------------------------------


 -------------------------------------------------------------------------------
 -                                                                             -
 -                           R E F E R E N C E S                               -
 -                                                                             -
 -------------------------------------------------------------------------------
 
 CP2K version 7.1, the CP2K developers group (2019).
 CP2K is freely available from https://www.cp2k.org/ .

 Schuett, Ole; Messmer, Peter; Hutter, Juerg; VandeVondele, Joost. 
 Electronic Structure Calculations on Graphics Processing Units, John
 Wiley & Sons, Ltd, 173-190 (2016). 
 GPU-Accelerated Sparse Matrix-Matrix Multiplication for
 Linear Scaling Density Functional Theory.
 https://dx.doi.org/10.1002/9781118670712.ch8

 Borstnik, U; VandeVondele, J; Weber, V; Hutter, J. 
 PARALLEL COMPUTING, 40 (5-6), 47-58 (2014). 
 Sparse matrix multiplication: The distributed block-compressed sparse
 row library.
 https://dx.doi.org/10.1016/j.parco.2014.03.012

 Hutter, J; Iannuzzi, M; Schiffmann, F; VandeVondele, J. 
 WIREs Comput Mol Sci., 4 (1), 15-25 (2014). 
 CP2K: atomistic simulations of condensed matter systems.
 https://dx.doi.org/10.1002/wcms.1159

 Marek, A; Blum, V; Johanni, R; Havu, V; Lang, B; Auckenthaler, T;
 Heinecke, A; Bungartz, H; Lederer, H. 
 Journal of Physics: Condensed Matter, 26 (21), (2014). 
 The ELPA library: scalable parallel eigenvalue solutions for
 electronic structure
 theory and computational science.
 https://dx.doi.org/10.1088/0953-8984/26/21/213201

 Grimme, S; Ehrlich, S; Goerigk, L. 
 JOURNAL OF COMPUTATIONAL CHEMISTRY, 32, 1456 (2011). 
 Effect of the damping function in dispersion corrected density functional theory.
 https://dx.doi.org/10.1002/jcc.21759

 Grimme, S; Antony, J; Ehrlich, S; Krieg, H. 
 JOURNAL OF CHEMICAL PHYSICS, 132 (15), 154104 (2010). 
 A consistent and accurate ab initio parametrization of density
 functional dispersion correction (DFT-D) for the 94 elements H-Pu.
 https://dx.doi.org/10.1063/1.3382344

 VandeVondele, J; Hutter, J. 
 JOURNAL OF CHEMICAL PHYSICS, 127 (11), 114105 (2007). 
 Gaussian basis sets for accurate calculations on molecular systems in
 gas and condensed phases.
 https://dx.doi.org/10.1063/1.2770708

 Krack, M. 
 THEORETICAL CHEMISTRY ACCOUNTS, 114 (1-3), 145-152 (2005). 
 Pseudopotentials for H to Kr optimized for gradient-corrected
 exchange-correlation functionals.
 https://dx.doi.org/10.1007/s00214-005-0655-y

 VandeVondele, J; Krack, M; Mohamed, F; Parrinello, M; Chassaing, T;
 Hutter, J. COMPUTER PHYSICS COMMUNICATIONS, 167 (2), 103-128 (2005). 
 QUICKSTEP: Fast and accurate density functional calculations using a
 mixed Gaussian and plane waves approach.
 https://dx.doi.org/10.1016/j.cpc.2004.12.014

 Frigo, M; Johnson, SG. 
 PROCEEDINGS OF THE IEEE, 93 (2), 216-231 (2005). 
 The design and implementation of FFTW3.
 https://dx.doi.org/10.1109/JPROC.2004.840301

 VandeVondele, J; Hutter, J. 
 JOURNAL OF CHEMICAL PHYSICS, 118 (10), 4365-4369 (2003). 
 An efficient orbital transformation method for electronic structure
 calculations.
 https://dx.doi.org/10.1063/1.1543154

 Hartwigsen, C; Goedecker, S; Hutter, J. 
 PHYSICAL REVIEW B, 58 (7), 3641-3662 (1998). 
 Relativistic separable dual-space Gaussian pseudopotentials from H to Rn.
 https://dx.doi.org/10.1103/PhysRevB.58.3641

 Dudarev, SL; Botton, GA; Savrasov, SY; Humphreys, CJ; Sutton, AP. 
 PHYSICAL REVIEW B, 57 (3), 1505-1509 (1998). 
 Electron-energy-loss spectra and the structural stability of
 nickel oxide: An LSDA+U study.
 https://dx.doi.org/10.1103/PhysRevB.57.1505

 Lippert, G; Hutter, J; Parrinello, M. 
 MOLECULAR PHYSICS, 92 (3), 477-487 (1997). 
 A hybrid Gaussian and plane wave density functional scheme.
 https://dx.doi.org/10.1080/002689797170220

 Dudarev, SL; Manh, DN; Sutton, AP. 
 PHILOSOPHICAL MAGAZINE B, 75 (5), 613-628 (1997). 
 Effect of Mott-Hubbard correlations on the electronic
 structure and structural stability of uranium dioxide.
 https://dx.doi.org/10.1080/13642819708202343

 Perdew, JP; Burke, K; Ernzerhof, M. 
 PHYSICAL REVIEW LETTERS, 77 (18), 3865-3868 (1996). 
 Generalized gradient approximation made simple.
 https://dx.doi.org/10.1103/PhysRevLett.77.3865

 Goedecker, S; Teter, M; Hutter, J. 
 PHYSICAL REVIEW B, 54 (3), 1703-1710 (1996). 
 Separable dual-space Gaussian pseudopotentials.
 https://dx.doi.org/10.1103/PhysRevB.54.1703


 -------------------------------------------------------------------------------
 -                                                                             -
 -                                T I M I N G                                  -
 -                                                                             -
 -------------------------------------------------------------------------------
 SUBROUTINE                       CALLS  ASD         SELF TIME        TOTAL TIME
                                MAXIMUM       AVERAGE  MAXIMUM  AVERAGE  MAXIMUM
 CP2K                                 1  1.0    0.049    0.124   21.892   21.899
 qs_forces                            1  2.0    0.000    0.000   20.728   20.729
 build_core_hamiltonian_matrix_       1  3.0    0.000    0.000    8.148    9.619
 qs_energies                          1  3.0    0.000    0.000    9.146    9.147
 build_core_ppnl_forces               1  4.0    6.768    7.930    6.769    7.931
 mp_sum_d                           955  6.5    1.541    3.936    1.541    3.936
 calculate_ecore_overlap              2  4.0    0.000    0.000    1.472    3.851
 qs_energies_init_hamiltonians        1  4.0    0.000    0.000    3.753    3.754
 scf_env_do_scf                       1  4.0    0.000    0.000    3.594    3.595
 rebuild_ks_matrix                    2  5.5    0.000    0.000    3.476    3.480
 qs_ks_build_kohn_sham_matrix         2  6.5    0.007    0.019    3.476    3.480
 sum_up_and_integrate                 2  7.5    0.001    0.001    2.903    2.905
 integrate_v_rspace                   4  8.5    2.265    2.601    2.902    2.904
 build_core_hamiltonian_matrix        1  5.0    0.000    0.000    1.954    2.303
 qs_env_update_s_mstruct              1  5.0    0.000    0.000    1.709    2.214
 qs_rho_update_rho                    2  6.0    0.000    0.000    2.188    2.189
 calculate_rho_elec                   4  7.0    1.612    1.894    2.188    2.189
 calculate_rho_core                   1  6.0    0.005    0.009    1.635    2.160
 init_scf_loop                        1  5.0    0.000    0.000    2.102    2.102
 build_core_ppl_forces                1  4.0    0.910    1.980    0.911    1.980
 qs_ks_update_qs_env_forces           1  3.0    0.000    0.000    1.959    1.961
 build_core_ppnl                      1  6.0    1.540    1.810    1.540    1.810
 pw_transfer                         71  9.6    0.002    0.003    1.706    1.757
 fft_wrap_pw1pw2                     67 10.7    0.000    0.001    1.703    1.754
 fft3d_ps                            67 12.7    0.097    0.122    1.663    1.714
 fft_wrap_pw1pw2_200                 43 11.6    0.015    0.018    1.653    1.706
 mp_alltoall_z22v                    67 14.7    1.526    1.588    1.526    1.588
 init_scf_run                         1  4.0    0.000    0.001    1.581    1.581
 scf_env_initial_rho_setup            1  5.0    0.000    0.000    1.581    1.581
 rs_pw_transfer                      37  9.5    0.000    0.001    0.999    1.523
 qs_ks_update_qs_env                  2  6.0    0.000    0.000    1.519    1.522
 scf_env_do_scf_inner_loop            1  5.0    0.000    0.000    1.466    1.487
 yz_to_x                             25 13.4    0.005    0.006    1.423    1.481
 mp_waitany                         468 11.3    0.805    1.323    0.805    1.323
 rs_pw_transfer_RS2PW_200             6  9.5    0.032    0.041    0.711    1.237
 mp_alltoall_d11v                   182 10.7    0.498    0.934    0.498    0.934
 rs_distribute_matrix                10  8.6    0.020    0.026    0.486    0.931
 density_rs2pw                        4  8.0    0.000    0.000    0.480    0.852
 qs_init_subsys                       1  2.0    0.001    0.004    0.838    0.838
 qs_env_setup                         1  3.0    0.000    0.000    0.642    0.645
 qs_env_rebuild_pw_env                3  3.7    0.000    0.000    0.642    0.645
 pw_env_rebuild                       1  5.0    0.000    0.001    0.642    0.645
 dbcsr_multiply_generic              49  9.6    0.003    0.003    0.623    0.633
 build_core_ppl                       1  6.0    0.297    0.571    0.297    0.571
 prepare_preconditioner               1  6.0    0.000    0.000    0.526    0.530
 make_preconditioner                  2  7.0    0.000    0.000    0.526    0.530
 build_overlap_matrix                 2  5.0    0.295    0.509    0.296    0.510
 build_kinetic_matrix                 2  5.0    0.287    0.491    0.288    0.492
 calculate_first_density_matrix       1  6.0    0.000    0.015    0.483    0.483
 compute_max_radius                   1  6.0    0.417    0.467    0.417    0.467
 multiply_cannon                     49 10.6    0.013    0.014    0.430    0.459
 -------------------------------------------------------------------------------

 The number of warnings for this run is : 2
 
 -------------------------------------------------------------------------------
  **** **** ******  **  PROGRAM ENDED AT                 2021-07-19 16:47:45.351
 ***** ** ***  *** **   PROGRAM RAN ON                                   c52-036
 **    ****   ******    PROGRAM RAN BY                                      jyhu
 ***** **    ** ** **   PROGRAM PROCESS ID                                 17986
  **** **  *******  **  PROGRAM STOPPED IN /data/jyhu/1-CP2K/7-PrBaSrCoFeO/2-Dis
                                           order/1-bulk-dis/1-PBE+U-dis/4-4.0/pr
                                           int
