 DBCSR| CPU Multiplication driver                                           XSMM
 DBCSR| Multrec recursion limit                                              512
 DBCSR| Multiplication stack size                                           1000
 DBCSR| Maximum elements for images                                    UNLIMITED
 DBCSR| Multiplicative factor virtual images                                   1
 DBCSR| Use multiplication densification                                       T
 DBCSR| Multiplication size stacks                                             3
 DBCSR| Number of 3D layers                                               SINGLE
 DBCSR| Use MPI memory allocation                                              T
 DBCSR| Use RMA algorithm                                                      F
 DBCSR| Use Communication thread                                               T
 DBCSR| Communication thread load                                             87


  **** **** ******  **  PROGRAM STARTED AT               2024-04-24 03:20:30.545
 ***** ** ***  *** **   PROGRAM STARTED ON                               c53-028
 **    ****   ******    PROGRAM STARTED BY                              ybzhuang
 ***** **    ** ** **   PROGRAM PROCESS ID                                111846
  **** **  *******  **  PROGRAM STARTED IN /data/ybzhuang/workdirs/25-SIO-raman/
                                           01.IrO2/03.static_raman

 CP2K| version string:                                          CP2K version 7.1
 CP2K| source code revision number:                                  git:e635599
 CP2K| cp2kflags: libint fftw3 libxc elpa parallel mpi3 scalapack xsmm spglib   
 CP2K| is freely available from                            https://www.cp2k.org/
 CP2K| Program compiled at                           Mon Mar 8 20:53:19 CST 2021
 CP2K| Program compiled on                                                 mgt01
 CP2K| Program compiled for                                                local
 CP2K| Data directory path                        /data/share/apps/cp2k/7.1/data
 CP2K| Input file name                                                   vib.inp

 GLOBAL| Force Environment number                                              1
 GLOBAL| Basis set file name                                        BASIS_MOLOPT
 GLOBAL| Potential file name                                      GTH_POTENTIALS
 GLOBAL| MM Potential file name                                     MM_POTENTIAL
 GLOBAL| Coordinate file name                             slab-IrO2-hydrated.xyz
 GLOBAL| Method name                                                        CP2K
 GLOBAL| Project name                                                       IrO2
 GLOBAL| Preferred FFT library                                             FFTW3
 GLOBAL| Preferred diagonalization lib.                                     ELPA
 GLOBAL| Run type                                           VIBRATIONAL_ANALYSIS
 GLOBAL| All-to-all communication in single precision                          F
 GLOBAL| FFTs using library dependent lengths                                  F
 GLOBAL| Global print level                                               MEDIUM
 GLOBAL| MPI I/O enabled                                                       T
 GLOBAL| Total number of message passing processes                            96
 GLOBAL| Number of threads for this process                                    1
 GLOBAL| This output is from process                                           0
 GLOBAL| CPU model name                Intel(R) Xeon(R) Gold 6226R CPU @ 2.90GHz
 GLOBAL| CPUID                                                              1003
 GLOBAL| Compiled for CPUID                                                 1002
 HINT in environment.F:814 The compiler target flags (x86_avx2) used to build
   this binary cannot exploit all extensions of this CPU model (x86_avx512).
   Consider compiler target flags as part of FCFLAGS and CFLAGS (ARCH file).

 MEMORY| system memory details [Kb]
 MEMORY|                        rank 0           min           max       average
 MEMORY| MemTotal            196481368     196481368     196481376     196481370
 MEMORY| MemFree             180391900     168683920     180420532     176498784
 MEMORY| Buffers                     4             0             4             1
 MEMORY| Cached                2497080       2497080       8152012       4446017
 MEMORY| Slab                   599604        583804        977988        720465
 MEMORY| SReclaimable           214104        184256        311856        236738
 MEMORY| MemLikelyFree       183103088     177147788     183293748     181181541


 *** Fundamental physical constants (SI units) ***

 *** Literature: B. J. Mohr and B. N. Taylor,
 ***             CODATA recommended values of the fundamental physical
 ***             constants: 2006, Web Version 5.1
 ***             http://physics.nist.gov/constants

 Speed of light in vacuum [m/s]                             2.99792458000000E+08
 Magnetic constant or permeability of vacuum [N/A**2]       1.25663706143592E-06
 Electric constant or permittivity of vacuum [F/m]          8.85418781762039E-12
 Planck constant (h) [J*s]                                  6.62606896000000E-34
 Planck constant (h-bar) [J*s]                              1.05457162825177E-34
 Elementary charge [C]                                      1.60217648700000E-19
 Electron mass [kg]                                         9.10938215000000E-31
 Electron g factor [ ]                                     -2.00231930436220E+00
 Proton mass [kg]                                           1.67262163700000E-27
 Fine-structure constant                                    7.29735253760000E-03
 Rydberg constant [1/m]                                     1.09737315685270E+07
 Avogadro constant [1/mol]                                  6.02214179000000E+23
 Boltzmann constant [J/K]                                   1.38065040000000E-23
 Atomic mass unit [kg]                                      1.66053878200000E-27
 Bohr radius [m]                                            5.29177208590000E-11

 *** Conversion factors ***

 [u] -> [a.u.]                                              1.82288848426455E+03
 [Angstrom] -> [Bohr] = [a.u.]                              1.88972613288564E+00
 [a.u.] = [Bohr] -> [Angstrom]                              5.29177208590000E-01
 [a.u.] -> [s]                                              2.41888432650478E-17
 [a.u.] -> [fs]                                             2.41888432650478E-02
 [a.u.] -> [J]                                              4.35974393937059E-18
 [a.u.] -> [N]                                              8.23872205491840E-08
 [a.u.] -> [K]                                              3.15774647902944E+05
 [a.u.] -> [kJ/mol]                                         2.62549961709828E+03
 [a.u.] -> [kcal/mol]                                       6.27509468713739E+02
 [a.u.] -> [Pa]                                             2.94210107994716E+13
 [a.u.] -> [bar]                                            2.94210107994716E+08
 [a.u.] -> [atm]                                            2.90362800883016E+08
 [a.u.] -> [eV]                                             2.72113838565563E+01
 [a.u.] -> [Hz]                                             6.57968392072181E+15
 [a.u.] -> [1/cm] (wave numbers)                            2.19474631370540E+05
 [a.u./Bohr**2] -> [1/cm]                                   5.14048714338585E+03
 

 CELL_TOP| Volume [angstrom^3]:                                         2264.435
 CELL_TOP| Vector a [angstrom     9.006     0.000     0.000    |a| =       9.006
 CELL_TOP| Vector b [angstrom     0.000     9.006     0.000    |b| =       9.006
 CELL_TOP| Vector c [angstrom     0.000     0.000    27.919    |c| =      27.919
 CELL_TOP| Angle (b,c), alpha [degree]:                                   90.000
 CELL_TOP| Angle (a,c), beta  [degree]:                                   90.000
 CELL_TOP| Angle (a,b), gamma [degree]:                                   90.000
 CELL_TOP| Numerically orthorhombic:                                         YES

 GENERATE|  Preliminary Number of Bonds generated:                             0
 GENERATE|  Achieved consistency in connectivity generation.

 CELL| Volume [angstrom^3]:                                             2264.435
 CELL| Vector a [angstrom]:       9.006     0.000     0.000    |a| =       9.006
 CELL| Vector b [angstrom]:       0.000     9.006     0.000    |b| =       9.006
 CELL| Vector c [angstrom]:       0.000     0.000    27.919    |c| =      27.919
 CELL| Angle (b,c), alpha [degree]:                                       90.000
 CELL| Angle (a,c), beta  [degree]:                                       90.000
 CELL| Angle (a,b), gamma [degree]:                                       90.000
 CELL| Numerically orthorhombic:                                             YES

 CELL_REF| Volume [angstrom^3]:                                         2264.435
 CELL_REF| Vector a [angstrom     9.006     0.000     0.000    |a| =       9.006
 CELL_REF| Vector b [angstrom     0.000     9.006     0.000    |b| =       9.006
 CELL_REF| Vector c [angstrom     0.000     0.000    27.919    |c| =      27.919
 CELL_REF| Angle (b,c), alpha [degree]:                                   90.000
 CELL_REF| Angle (a,c), beta  [degree]:                                   90.000
 CELL_REF| Angle (a,b), gamma [degree]:                                   90.000
 CELL_REF| Numerically orthorhombic:                                         YES

 *******************************************************************************
 *******************************************************************************
 **                                                                           **
 **     #####                         ##              ##                      **
 **    ##   ##            ##          ##              ##                      **
 **   ##     ##                       ##            ######                    **
 **   ##     ##  ##   ##  ##   #####  ##  ##   ####   ##    #####    #####    **
 **   ##     ##  ##   ##  ##  ##      ## ##   ##      ##   ##   ##  ##   ##   **
 **   ##  ## ##  ##   ##  ##  ##      ####     ###    ##   ######   ######    **
 **    ##  ###   ##   ##  ##  ##      ## ##      ##   ##   ##       ##        **
 **     #######   #####   ##   #####  ##  ##  ####    ##    #####   ##        **
 **           ##                                                    ##        **
 **                                                                           **
 **                                                ... make the atoms dance   **
 **                                                                           **
 **            Copyright (C) by CP2K developers group (2000 - 2019)           **
 **                                                                           **
 *******************************************************************************

 DFT| Spin restricted Kohn-Sham (RKS) calculation                            RKS
 DFT| Multiplicity                                                             1
 DFT| Number of spin states                                                    1
 DFT| Charge                                                                   0
 DFT| Self-interaction correction (SIC)                                       NO
 DFT| Cutoffs: density                                              1.000000E-10
 DFT|          gradient                                             1.000000E-10
 DFT|          tau                                                  1.000000E-10
 DFT|          cutoff_smoothing_range                               0.000000E+00
 DFT| XC density smoothing                                                  NONE
 DFT| XC derivatives                                                          PW
 FUNCTIONAL| ROUTINE=NEW
 FUNCTIONAL| PBE:
 FUNCTIONAL| J.P.Perdew, K.Burke, M.Ernzerhof, Phys. Rev. Letter, vol. 77, n 18,
 FUNCTIONAL|  pp. 3865-3868, (1996){spin unpolarized}                           
 vdW POTENTIAL|                                                   Pair Potential
 vdW POTENTIAL|          DFT-D3 (Version 3.1)
 vdW POTENTIAL|          Potential Form: S. Grimme et al, JCP 132: 154104 (2010)
 vdW POTENTIAL|          Zero Damping
 vdW POTENTIAL|          Cutoff Radius [Bohr]:                             20.00
 vdW POTENTIAL|          s6 Scaling Factor:                               1.0000
 vdW POTENTIAL|          sr6 Scaling Factor:                              1.2170
 vdW POTENTIAL|          s8 Scaling Factor:                               0.7220
 vdW POTENTIAL|          Cutoff for CN calculation:                   0.1000E-05

 QS| Method:                                                                 GPW
 QS| Density plane wave grid type                        NON-SPHERICAL FULLSPACE
 QS| Number of grid levels:                                                    4
 QS| Density cutoff [a.u.]:                                                300.0
 QS| Multi grid cutoff [a.u.]: 1) grid level                               300.0
 QS|                           2) grid level                               100.0
 QS|                           3) grid level                                33.3
 QS|                           4) grid level                                11.1
 QS| Grid level progression factor:                                          3.0
 QS| Relative density cutoff [a.u.]:                                        20.0
 QS| Consistent realspace mapping and integration 
 QS| Interaction thresholds: eps_pgf_orb:                                3.2E-07
 QS|                         eps_filter_matrix:                          0.0E+00
 QS|                         eps_core_charge:                            1.0E-15
 QS|                         eps_rho_gspace:                             1.0E-13
 QS|                         eps_rho_rspace:                             1.0E-13
 QS|                         eps_gvg_rspace:                             3.2E-07
 QS|                         eps_ppl:                                    1.0E-02
 QS|                         eps_ppnl:                                   3.2E-09


 ATOMIC KIND INFORMATION

  1. Atomic kind: Ir                                    Number of atoms:      20

     Orbital Basis Set                                        DZVP-MOLOPT-SR-GTH

       Number of orbital shell sets:                                           1
       Number of orbital shells:                                               8
       Number of primitive Cartesian functions:                                6
       Number of Cartesian basis functions:                                   31
       Number of spherical basis functions:                                   26
       Norm type:                                                              2

       Normalised Cartesian orbitals:

                        Set   Shell   Orbital            Exponent    Coefficient

                          1       1    2s                3.382589       1.435390
                                                         2.784160      -0.474210
                                                         1.210223      -0.790667
                                                         0.538964      -0.119935
                                                         0.221745      -0.017623
                                                         0.076332      -0.009477

                          1       2    3s                3.382589       0.086853
                                                         2.784160       0.353037
                                                         1.210223      -0.579640
                                                         0.538964      -0.167675
                                                         0.221745       0.121385
                                                         0.076332       0.081668

                          1       3    4s                3.382589      -0.489840
                                                         2.784160       0.771087
                                                         1.210223      -0.213021
                                                         0.538964       0.795227
                                                         0.221745      -0.783729
                                                         0.076332       0.207584

                          1       4    3px               3.382589       3.684453
                                                         2.784160      -2.546188
                                                         1.210223      -1.177824
                                                         0.538964      -0.245410
                                                         0.221745      -0.005653
                                                         0.076332      -0.000033
                          1       4    3py               3.382589       3.684453
                                                         2.784160      -2.546188
                                                         1.210223      -1.177824
                                                         0.538964      -0.245410
                                                         0.221745      -0.005653
                                                         0.076332      -0.000033
                          1       4    3pz               3.382589       3.684453
                                                         2.784160      -2.546188
                                                         1.210223      -1.177824
                                                         0.538964      -0.245410
                                                         0.221745      -0.005653
                                                         0.076332      -0.000033

                          1       5    4px               3.382589      -1.220072
                                                         2.784160       1.114020
                                                         1.210223      -0.492129
                                                         0.538964       0.149092
                                                         0.221745       0.099141
                                                         0.076332       0.031538
                          1       5    4py               3.382589      -1.220072
                                                         2.784160       1.114020
                                                         1.210223      -0.492129
                                                         0.538964       0.149092
                                                         0.221745       0.099141
                                                         0.076332       0.031538
                          1       5    4pz               3.382589      -1.220072
                                                         2.784160       1.114020
                                                         1.210223      -0.492129
                                                         0.538964       0.149092
                                                         0.221745       0.099141
                                                         0.076332       0.031538

                          1       6    4dx2              3.382589      -0.539741
                                                         2.784160       0.934353
                                                         1.210223       0.821580
                                                         0.538964       0.233850
                                                         0.221745       0.037011
                                                         0.076332       0.001341
                          1       6    4dxy              3.382589      -0.934859
                                                         2.784160       1.618346
                                                         1.210223       1.423018
                                                         0.538964       0.405040
                                                         0.221745       0.064105
                                                         0.076332       0.002323
                          1       6    4dxz              3.382589      -0.934859
                                                         2.784160       1.618346
                                                         1.210223       1.423018
                                                         0.538964       0.405040
                                                         0.221745       0.064105
                                                         0.076332       0.002323
                          1       6    4dy2              3.382589      -0.539741
                                                         2.784160       0.934353
                                                         1.210223       0.821580
                                                         0.538964       0.233850
                                                         0.221745       0.037011
                                                         0.076332       0.001341
                          1       6    4dyz              3.382589      -0.934859
                                                         2.784160       1.618346
                                                         1.210223       1.423018
                                                         0.538964       0.405040
                                                         0.221745       0.064105
                                                         0.076332       0.002323
                          1       6    4dz2              3.382589      -0.539741
                                                         2.784160       0.934353
                                                         1.210223       0.821580
                                                         0.538964       0.233850
                                                         0.221745       0.037011
                                                         0.076332       0.001341

                          1       7    5dx2              3.382589       1.020522
                                                         2.784160      -1.175476
                                                         1.210223      -0.635229
                                                         0.538964      -0.074342
                                                         0.221745      -0.022891
                                                         0.076332       0.018822
                          1       7    5dxy              3.382589       1.767595
                                                         2.784160      -2.035984
                                                         1.210223      -1.100249
                                                         0.538964      -0.128764
                                                         0.221745      -0.039648
                                                         0.076332       0.032600
                          1       7    5dxz              3.382589       1.767595
                                                         2.784160      -2.035984
                                                         1.210223      -1.100249
                                                         0.538964      -0.128764
                                                         0.221745      -0.039648
                                                         0.076332       0.032600
                          1       7    5dy2              3.382589       1.020522
                                                         2.784160      -1.175476
                                                         1.210223      -0.635229
                                                         0.538964      -0.074342
                                                         0.221745      -0.022891
                                                         0.076332       0.018822
                          1       7    5dyz              3.382589       1.767595
                                                         2.784160      -2.035984
                                                         1.210223      -1.100249
                                                         0.538964      -0.128764
                                                         0.221745      -0.039648
                                                         0.076332       0.032600
                          1       7    5dz2              3.382589       1.020522
                                                         2.784160      -1.175476
                                                         1.210223      -0.635229
                                                         0.538964      -0.074342
                                                         0.221745      -0.022891
                                                         0.076332       0.018822

                          1       8    5fx3              3.382589       0.762972
                                                         2.784160      -0.312598
                                                         1.210223      -0.434205
                                                         0.538964      -0.201287
                                                         0.221745      -0.023293
                                                         0.076332       0.002442
                          1       8    5fx2y             3.382589       1.706058
                                                         2.784160      -0.698990
                                                         1.210223      -0.970912
                                                         0.538964      -0.450091
                                                         0.221745      -0.052084
                                                         0.076332       0.005461
                          1       8    5fx2z             3.382589       1.706058
                                                         2.784160      -0.698990
                                                         1.210223      -0.970912
                                                         0.538964      -0.450091
                                                         0.221745      -0.052084
                                                         0.076332       0.005461
                          1       8    5fxy2             3.382589       1.706058
                                                         2.784160      -0.698990
                                                         1.210223      -0.970912
                                                         0.538964      -0.450091
                                                         0.221745      -0.052084
                                                         0.076332       0.005461
                          1       8    5fxyz             3.382589       2.954979
                                                         2.784160      -1.210686
                                                         1.210223      -1.681668
                                                         0.538964      -0.779581
                                                         0.221745      -0.090212
                                                         0.076332       0.009460
                          1       8    5fxz2             3.382589       1.706058
                                                         2.784160      -0.698990
                                                         1.210223      -0.970912
                                                         0.538964      -0.450091
                                                         0.221745      -0.052084
                                                         0.076332       0.005461
                          1       8    5fy3              3.382589       0.762972
                                                         2.784160      -0.312598
                                                         1.210223      -0.434205
                                                         0.538964      -0.201287
                                                         0.221745      -0.023293
                                                         0.076332       0.002442
                          1       8    5fy2z             3.382589       1.706058
                                                         2.784160      -0.698990
                                                         1.210223      -0.970912
                                                         0.538964      -0.450091
                                                         0.221745      -0.052084
                                                         0.076332       0.005461
                          1       8    5fyz2             3.382589       1.706058
                                                         2.784160      -0.698990
                                                         1.210223      -0.970912
                                                         0.538964      -0.450091
                                                         0.221745      -0.052084
                                                         0.076332       0.005461
                          1       8    5fz3              3.382589       0.762972
                                                         2.784160      -0.312598
                                                         1.210223      -0.434205
                                                         0.538964      -0.201287
                                                         0.221745      -0.023293
                                                         0.076332       0.002442

     GTH Potential information for                                   GTH-PBE-q17

       Description:                       Goedecker-Teter-Hutter pseudopotential
                                           Goedecker et al., PRB 54, 1703 (1996)
                                          Hartwigsen et al., PRB 58, 3641 (1998)
                                                      Krack, TCA 114, 145 (2005)

       Gaussian exponent of the core charge distribution:               1.922338
       Electronic configuration (s p d ...):                           4   6   7

       Parameters of the local part of the GTH pseudopotential:

                          rloc        C1          C2          C3          C4
                        0.510000   13.410806   -2.341948

       Parameters of the non-local part of the GTH pseudopotential:

                   l      r(l)      h(i,j,l)

                   0    0.387264   -2.516285    1.055190    4.675056
                                    1.055190    6.241735  -12.070943
                                    4.675056  -12.070943    9.581014
                   1    0.346083   -6.526151    7.353184
                                    7.353184   -8.700405
                   2    0.378813   -0.855953   -1.175351
                                   -1.175351    1.332723

  2. Atomic kind: O                                     Number of atoms:      48

     Orbital Basis Set                                        DZVP-MOLOPT-SR-GTH

       Number of orbital shell sets:                                           1
       Number of orbital shells:                                               5
       Number of primitive Cartesian functions:                                5
       Number of Cartesian basis functions:                                   14
       Number of spherical basis functions:                                   13
       Norm type:                                                              2

       Normalised Cartesian orbitals:

                        Set   Shell   Orbital            Exponent    Coefficient

                          1       1    2s               10.389228       0.396646
                                                         3.849621       0.208811
                                                         1.388401      -0.301641
                                                         0.496955      -0.274061
                                                         0.162492      -0.033677

                          1       2    3s               10.389228       0.303673
                                                         3.849621       0.240943
                                                         1.388401      -0.313066
                                                         0.496955      -0.043055
                                                         0.162492       0.213991

                          1       3    3px              10.389228      -1.530415
                                                         3.849621      -1.371928
                                                         1.388401      -0.761951
                                                         0.496955      -0.253695
                                                         0.162492      -0.035541
                          1       3    3py              10.389228      -1.530415
                                                         3.849621      -1.371928
                                                         1.388401      -0.761951
                                                         0.496955      -0.253695
                                                         0.162492      -0.035541
                          1       3    3pz              10.389228      -1.530415
                                                         3.849621      -1.371928
                                                         1.388401      -0.761951
                                                         0.496955      -0.253695
                                                         0.162492      -0.035541

                          1       4    4px              10.389228      -0.565392
                                                         3.849621      -0.038231
                                                         1.388401      -0.382373
                                                         0.496955       0.179070
                                                         0.162492       0.122714
                          1       4    4py              10.389228      -0.565392
                                                         3.849621      -0.038231
                                                         1.388401      -0.382373
                                                         0.496955       0.179070
                                                         0.162492       0.122714
                          1       4    4pz              10.389228      -0.565392
                                                         3.849621      -0.038231
                                                         1.388401      -0.382373
                                                         0.496955       0.179070
                                                         0.162492       0.122714

                          1       5    4dx2             10.389228       1.867377
                                                         3.849621       0.670994
                                                         1.388401       1.353441
                                                         0.496955       0.273538
                                                         0.162492       0.006620
                          1       5    4dxy             10.389228       3.234392
                                                         3.849621       1.162195
                                                         1.388401       2.344229
                                                         0.496955       0.473781
                                                         0.162492       0.011466
                          1       5    4dxz             10.389228       3.234392
                                                         3.849621       1.162195
                                                         1.388401       2.344229
                                                         0.496955       0.473781
                                                         0.162492       0.011466
                          1       5    4dy2             10.389228       1.867377
                                                         3.849621       0.670994
                                                         1.388401       1.353441
                                                         0.496955       0.273538
                                                         0.162492       0.006620
                          1       5    4dyz             10.389228       3.234392
                                                         3.849621       1.162195
                                                         1.388401       2.344229
                                                         0.496955       0.473781
                                                         0.162492       0.011466
                          1       5    4dz2             10.389228       1.867377
                                                         3.849621       0.670994
                                                         1.388401       1.353441
                                                         0.496955       0.273538
                                                         0.162492       0.006620

     GTH Potential information for                                    GTH-PBE-q6

       Description:                       Goedecker-Teter-Hutter pseudopotential
                                           Goedecker et al., PRB 54, 1703 (1996)
                                          Hartwigsen et al., PRB 58, 3641 (1998)
                                                      Krack, TCA 114, 145 (2005)

       Gaussian exponent of the core charge distribution:               8.360253
       Electronic configuration (s p d ...):                               2   4

       Parameters of the local part of the GTH pseudopotential:

                          rloc        C1          C2          C3          C4
                        0.244554  -16.667215    2.487311

       Parameters of the non-local part of the GTH pseudopotential:

                   l      r(l)      h(i,j,l)

                   0    0.220956   18.337458
                   1    0.211332

  3. Atomic kind: H                                     Number of atoms:      16

     Orbital Basis Set                                        DZVP-MOLOPT-SR-GTH

       Number of orbital shell sets:                                           1
       Number of orbital shells:                                               3
       Number of primitive Cartesian functions:                                5
       Number of Cartesian basis functions:                                    5
       Number of spherical basis functions:                                    5
       Norm type:                                                              2

       Normalised Cartesian orbitals:

                        Set   Shell   Orbital            Exponent    Coefficient

                          1       1    2s               10.068468      -0.133023
                                                         2.680223      -0.177618
                                                         0.791502      -0.258419
                                                         0.239116      -0.107525
                                                         0.082193      -0.014019

                          1       2    3s               10.068468       0.344673
                                                         2.680223       1.819821
                                                         0.791502      -0.999069
                                                         0.239116       0.017430
                                                         0.082193       0.082660

                          1       3    3px              10.068468       0.155326
                                                         2.680223       0.367157
                                                         0.791502       0.311480
                                                         0.239116       0.080105
                                                         0.082193       0.033440
                          1       3    3py              10.068468       0.155326
                                                         2.680223       0.367157
                                                         0.791502       0.311480
                                                         0.239116       0.080105
                                                         0.082193       0.033440
                          1       3    3pz              10.068468       0.155326
                                                         2.680223       0.367157
                                                         0.791502       0.311480
                                                         0.239116       0.080105
                                                         0.082193       0.033440

     GTH Potential information for                                    GTH-PBE-q1

       Description:                       Goedecker-Teter-Hutter pseudopotential
                                           Goedecker et al., PRB 54, 1703 (1996)
                                          Hartwigsen et al., PRB 58, 3641 (1998)
                                                      Krack, TCA 114, 145 (2005)

       Gaussian exponent of the core charge distribution:              12.500000
       Electronic configuration (s p d ...):                                   1

       Parameters of the local part of the GTH pseudopotential:

                          rloc        C1          C2          C3          C4
                        0.200000   -4.178900    0.724463


 MOLECULE KIND INFORMATION


 All atoms are their own molecule, skipping detailed information


 TOTAL NUMBERS AND MAXIMUM NUMBERS

  Total number of            - Atomic kinds:                                   3
                             - Atoms:                                         84
                             - Shell sets:                                    84
                             - Shells:                                       448
                             - Primitive Cartesian functions:                440
                             - Cartesian basis functions:                   1372
                             - Spherical basis functions:                   1224

  Maximum angular momentum of- Orbital basis functions:                        3
                             - Local part of the GTH pseudopotential:          2
                             - Non-local part of the GTH pseudopotential:      4


 MODULE QUICKSTEP:  ATOMIC COORDINATES IN angstrom

  Atom  Kind  Element       X           Y           Z          Z(eff)       Mass

       1     1 Ir  77    2.251500    2.251500    3.583750     17.00     192.2170
       2     1 Ir  77    0.000000    0.000000    2.000000     17.00     192.2170
       3     2 O    8    3.113089    3.113089    2.000000      6.00      15.9994
       4     2 O    8    0.861589    3.641411    3.583750      6.00      15.9994
       5     2 O    8    1.389911    1.389911    2.000000      6.00      15.9994
       6     2 O    8    3.641411    0.861589    3.583750      6.00      15.9994
       7     1 Ir  77    2.235922    2.243616    6.797721     17.00     192.2170
       8     1 Ir  77    0.001684    0.002665    5.153782     17.00     192.2170
       9     2 O    8    3.116170    3.121841    5.190924      6.00      15.9994
      10     2 O    8    0.886655    3.664790    6.752038      6.00      15.9994
      11     2 O    8    1.392026    1.392578    5.177495      6.00      15.9994
      12     2 O    8    3.665738    0.904375    6.752638      6.00      15.9994
      13     1 Ir  77    0.015368    0.017454    8.275156     17.00     192.2170
      14     2 O    8    3.087019    3.105413    8.433183      6.00      15.9994
      15     2 O    8    1.344256    1.346043    8.257590      6.00      15.9994
      16     2 O    8    1.073998    3.595590    9.836070      6.00      15.9994
      17     3 H    1    0.671788    2.716506   10.012297      1.00       1.0079
      18     3 H    1    1.982693    3.380763    9.317133      1.00       1.0079
      19     2 O    8    3.591580    1.082168    9.838885      6.00      15.9994
      20     3 H    1    3.370577    1.987225    9.325089      1.00       1.0079
      21     3 H    1    2.715154    0.676462   10.020364      1.00       1.0079
      22     1 Ir  77    2.251500    6.754500    3.583750     17.00     192.2170
      23     1 Ir  77   -0.000000    4.503000    2.000000     17.00     192.2170
      24     2 O    8    3.113089    7.616089    2.000000      6.00      15.9994
      25     2 O    8    0.861589    8.144411    3.583750      6.00      15.9994
      26     2 O    8    1.389911    5.892911    2.000000      6.00      15.9994
      27     2 O    8    3.641411    5.364589    3.583750      6.00      15.9994
      28     1 Ir  77    2.251328    6.743121    6.777929     17.00     192.2170
      29     1 Ir  77   -0.004051    4.506062    5.165662     17.00     192.2170
      30     2 O    8    3.122325    7.606751    5.180640      6.00      15.9994
      31     2 O    8    0.867999    8.130268    6.721342      6.00      15.9994
      32     2 O    8    1.404818    5.874641    5.178459      6.00      15.9994
      33     2 O    8    3.666003    5.389836    6.785696      6.00      15.9994
      34     1 Ir  77    0.039950    4.526683    8.290641     17.00     192.2170
      35     2 O    8    3.118252    7.666933    8.342354      6.00      15.9994
      36     2 O    8    1.416300    5.886544    8.384528      6.00      15.9994
      37     2 O    8    1.061582    8.127396    9.759678      6.00      15.9994
      38     3 H    1    1.003622    7.169067    9.504402      1.00       1.0079
      39     3 H    1    2.341064    7.958442    8.967918      1.00       1.0079
      40     2 O    8    3.403745    5.400092    9.888052      6.00      15.9994
      41     3 H    1    3.788558    6.277782   10.090170      1.00       1.0079
      42     3 H    1    2.524809    5.623072    9.353132      1.00       1.0079
      43     1 Ir  77    6.754500    2.251500    3.583750     17.00     192.2170
      44     1 Ir  77    4.503000    0.000000    2.000000     17.00     192.2170
      45     2 O    8    7.616089    3.113089    2.000000      6.00      15.9994
      46     2 O    8    5.364589    3.641411    3.583750      6.00      15.9994
      47     2 O    8    5.892911    1.389911    2.000000      6.00      15.9994
      48     2 O    8    8.144411    0.861589    3.583750      6.00      15.9994
      49     1 Ir  77    6.740901    2.253686    6.777748     17.00     192.2170
      50     1 Ir  77    4.502388   -0.000418    5.166566     17.00     192.2170
      51     2 O    8    7.605000    3.124407    5.180269      6.00      15.9994
      52     2 O    8    5.386400    3.668076    6.785646      6.00      15.9994
      53     2 O    8    5.874291    1.405145    5.178515      6.00      15.9994
      54     2 O    8    8.128661    0.869734    6.721024      6.00      15.9994
      55     1 Ir  77    4.520191    0.046875    8.291841     17.00     192.2170
      56     2 O    8    7.663581    3.122141    8.341871      6.00      15.9994
      57     2 O    8    5.884196    1.419901    8.385406      6.00      15.9994
      58     2 O    8    5.397240    3.405455    9.887522      6.00      15.9994
      59     3 H    1    5.622268    2.527427    9.350974      1.00       1.0079
      60     3 H    1    6.273398    3.791940   10.093023      1.00       1.0079
      61     2 O    8    8.124521    1.062270    9.759170      6.00      15.9994
      62     3 H    1    7.956146    2.346219    8.967382      1.00       1.0079
      63     3 H    1    7.166652    1.007986    9.500616      1.00       1.0079
      64     1 Ir  77    6.754500    6.754500    3.583750     17.00     192.2170
      65     1 Ir  77    4.503000    4.503000    2.000000     17.00     192.2170
      66     2 O    8    7.616089    7.616089    2.000000      6.00      15.9994
      67     2 O    8    5.364589    8.144411    3.583750      6.00      15.9994
      68     2 O    8    5.892911    5.892911    2.000000      6.00      15.9994
      69     2 O    8    8.144411    5.364589    3.583750      6.00      15.9994
      70     1 Ir  77    6.793638    6.801733    6.804654     17.00     192.2170
      71     1 Ir  77    4.514878    4.517504    5.185303     17.00     192.2170
      72     2 O    8    7.619316    7.622902    5.174015      6.00      15.9994
      73     2 O    8    5.363068    8.146331    6.754081      6.00      15.9994
      74     2 O    8    5.895856    5.922515    5.202839      6.00      15.9994
      75     2 O    8    8.144933    5.378662    6.750157      6.00      15.9994
      76     1 Ir  77    4.495853    4.499501    8.340889     17.00     192.2170
      77     2 O    8    7.685311    7.690560    8.286822      6.00      15.9994
      78     2 O    8    5.928254    5.929279    8.462196      6.00      15.9994
      79     2 O    8    5.336371    7.877558    9.820779      6.00      15.9994
      80     3 H    1    5.619143    6.974377    9.214434      1.00       1.0079
      81     3 H    1    6.185735    8.247672   10.133953      1.00       1.0079
      82     2 O    8    7.874051    5.338719    9.821280      6.00      15.9994
      83     3 H    1    8.242074    6.187133   10.138939      1.00       1.0079
      84     3 H    1    6.967187    5.622502    9.211652      1.00       1.0079




 SCF PARAMETERS         Density guess:                                   RESTART
                        --------------------------------------------------------
                        max_scf:                                             500
                        max_scf_history:                                       0
                        max_diis:                                              4
                        --------------------------------------------------------
                        eps_scf:                                        3.00E-07
                        eps_scf_history:                                0.00E+00
                        eps_diis:                                       1.00E-01
                        eps_eigval:                                     1.00E-05
                        --------------------------------------------------------
                        level_shift [a.u.]:                                 0.00
                        added MOs                                       500    0
                        --------------------------------------------------------
                        Mixing method:                            BROYDEN_MIXING
                                                charge density mixing in g-space
                        --------------------------------------------------------
                        Smear method:                                FERMI_DIRAC
                        Electronic temperature [K]:                        300.0
                        Electronic temperature [a.u.]:                  9.50E-04
                        Accuracy threshold:                             1.00E-10
                        --------------------------------------------------------
                        No outer SCF

 PW_GRID| Information for grid number                                          1
 PW_GRID| Grid distributed over                                    96 processors
 PW_GRID| Real space group dimensions                                    96    1
 PW_GRID| the grid is blocked:                                                NO
 PW_GRID| Cutoff [a.u.]                                                    300.0
 PW_GRID| spherical cutoff:                                                   NO
 PW_GRID|   Bounds   1            -67      67                Points:         135
 PW_GRID|   Bounds   2            -67      67                Points:         135
 PW_GRID|   Bounds   3           -216     215                Points:         432
 PW_GRID| Volume element (a.u.^3)  0.1941E-02     Volume (a.u.^3)     15281.1649
 PW_GRID| Grid span                                                    FULLSPACE
 PW_GRID|   Distribution                         Average         Max         Min
 PW_GRID|   G-Vectors                            82012.5       82080       81945
 PW_GRID|   G-Rays                                 607.5         608         607
 PW_GRID|   Real Space Points                    82012.5      116640       58320

 PW_GRID| Information for grid number                                          2
 PW_GRID| Number of the reference grid                                         1
 PW_GRID| Grid distributed over                                    96 processors
 PW_GRID| Real space group dimensions                                     8   12
 PW_GRID| the grid is blocked:                                                NO
 PW_GRID| Cutoff [a.u.]                                                    100.0
 PW_GRID| spherical cutoff:                                                   NO
 PW_GRID|   Bounds   1            -40      39                Points:          80
 PW_GRID|   Bounds   2            -40      39                Points:          80
 PW_GRID|   Bounds   3           -120     119                Points:         240
 PW_GRID| Volume element (a.u.^3)  0.9949E-02     Volume (a.u.^3)     15281.1649
 PW_GRID| Grid span                                                    FULLSPACE
 PW_GRID|   Distribution                         Average         Max         Min
 PW_GRID|   G-Vectors                            16000.0       16560       15440
 PW_GRID|   G-Rays                                 200.0         207         193
 PW_GRID|   Real Space Points                    16000.0       16800       14400

 PW_GRID| Information for grid number                                          3
 PW_GRID| Number of the reference grid                                         1
 PW_GRID| Grid distributed over                                    96 processors
 PW_GRID| Real space group dimensions                                     8   12
 PW_GRID| the grid is blocked:                                                NO
 PW_GRID| Cutoff [a.u.]                                                     33.3
 PW_GRID| spherical cutoff:                                                   NO
 PW_GRID|   Bounds   1            -22      22                Points:          45
 PW_GRID|   Bounds   2            -22      22                Points:          45
 PW_GRID|   Bounds   3            -72      71                Points:         144
 PW_GRID| Volume element (a.u.^3)  0.5240E-01     Volume (a.u.^3)     15281.1649
 PW_GRID| Grid span                                                    FULLSPACE
 PW_GRID|   Distribution                         Average         Max         Min
 PW_GRID|   G-Vectors                             3037.5        3375        2835
 PW_GRID|   G-Rays                                  67.5          75          63
 PW_GRID|   Real Space Points                     3037.5        3456        2160

 PW_GRID| Information for grid number                                          4
 PW_GRID| Number of the reference grid                                         1
 PW_GRID| Grid distributed over                                    96 processors
 PW_GRID| Real space group dimensions                                     8   12
 PW_GRID| the grid is blocked:                                                NO
 PW_GRID| Cutoff [a.u.]                                                     11.1
 PW_GRID| spherical cutoff:                                                   NO
 PW_GRID|   Bounds   1            -12      12                Points:          25
 PW_GRID|   Bounds   2            -12      12                Points:          25
 PW_GRID|   Bounds   3            -40      39                Points:          80
 PW_GRID| Volume element (a.u.^3)  0.3056         Volume (a.u.^3)     15281.1649
 PW_GRID| Grid span                                                    FULLSPACE
 PW_GRID|   Distribution                         Average         Max         Min
 PW_GRID|   G-Vectors                              520.8         650         350
 PW_GRID|   G-Rays                                  20.8          26          14
 PW_GRID|   Real Space Points                      520.8         960         480

 POISSON| Solver                                                        PERIODIC
 POISSON| Periodicity                                                        XYZ

 RS_GRID| Information for grid number                                          1
 RS_GRID|   Bounds   1            -67      67                Points:         135
 RS_GRID|   Bounds   2            -67      67                Points:         135
 RS_GRID|   Bounds   3           -216     215                Points:         432
 RS_GRID| Real space distribution over                                  6 groups
 RS_GRID| Real space distribution along direction                              2
 RS_GRID| Border size                                                         36
 RS_GRID| Real space distribution over                                 16 groups
 RS_GRID| Real space distribution along direction                              3
 RS_GRID| Border size                                                         36
 RS_GRID|   Distribution                         Average         Max         Min
 RS_GRID|   Planes                                  94.5          95          94
 RS_GRID|   Distribution                         Average         Max         Min
 RS_GRID|   Planes                                  99.0          99          99

 RS_GRID| Information for grid number                                          2
 RS_GRID|   Bounds   1            -40      39                Points:          80
 RS_GRID|   Bounds   2            -40      39                Points:          80
 RS_GRID|   Bounds   3           -120     119                Points:         240
 RS_GRID| Real space distribution over                                  6 groups
 RS_GRID| Real space distribution along direction                              2
 RS_GRID| Border size                                                         25
 RS_GRID| Real space distribution over                                 16 groups
 RS_GRID| Real space distribution along direction                              3
 RS_GRID| Border size                                                         25
 RS_GRID|   Distribution                         Average         Max         Min
 RS_GRID|   Planes                                  63.3          64          63
 RS_GRID|   Distribution                         Average         Max         Min
 RS_GRID|   Planes                                  65.0          65          65

 RS_GRID| Information for grid number                                          3
 RS_GRID|   Bounds   1            -22      22                Points:          45
 RS_GRID|   Bounds   2            -22      22                Points:          45
 RS_GRID|   Bounds   3            -72      71                Points:         144
 RS_GRID| Real space fully replicated
 RS_GRID| Group size                                                           1

 RS_GRID| Information for grid number                                          4
 RS_GRID|   Bounds   1            -12      12                Points:          25
 RS_GRID|   Bounds   2            -12      12                Points:          25
 RS_GRID|   Bounds   3            -40      39                Points:          80
 RS_GRID| Real space fully replicated
 RS_GRID| Group size                                                           1

 *******************************************************************************
 *******************************************************************************
 **                                                                           **
 **  #  #   #    #                  #     #                      ##           **
 **  #  #        ###   # ##   ###  ####         ##   # #    ###   #           **
 **  #  #   #    #  #  ##    #  #   #     #    #  #  ## #  #  #   #           **
 **   ##    #    #  #  #     # ##   #     #    #  #  #  #  # ##   #           **
 **   ##    #    ###   #      # #    ##   #     ##   #  #   # #  ###          **
 **                                                                           **
 **   ##               ##                 #                                   **
 **  #  #  # #    ###   #    #  #   ###         ###                           **
 **  #  #  ## #  #  #   #    #  #  ##     #    ##                             **
 **  ####  #  #  # ##   #     ###    ##   #      ##  N. Replicas:           3 **
 **  #  #  #  #   # #  ###      #  ###    #    ###   N. Procs/Rep:         32 **
 **                           ##                                              **
 **                                       T. Laino  and F. Schiffmann         **
 **                                       2008 - 2015                         **
 *******************************************************************************
 *******************************************************************************

 REPLICA| layout of the replica grid, number of groups                         3
 REPLICA| layout of the replica grid, size of each group                      32
 REPLICA| MPI process to grid (group,rank) correspondence:
  (   0 :    0,   0)  (   1 :    0,   1)  (   2 :    0,   2)  (   3 :    0,   3)
  (   4 :    0,   4)  (   5 :    0,   5)  (   6 :    0,   6)  (   7 :    0,   7)
  (   8 :    0,   8)  (   9 :    0,   9)  (  10 :    0,  10)  (  11 :    0,  11)
  (  12 :    0,  12)  (  13 :    0,  13)  (  14 :    0,  14)  (  15 :    0,  15)
  (  16 :    0,  16)  (  17 :    0,  17)  (  18 :    0,  18)  (  19 :    0,  19)
  (  20 :    0,  20)  (  21 :    0,  21)  (  22 :    0,  22)  (  23 :    0,  23)
  (  24 :    0,  24)  (  25 :    0,  25)  (  26 :    0,  26)  (  27 :    0,  27)
  (  28 :    0,  28)  (  29 :    0,  29)  (  30 :    0,  30)  (  31 :    0,  31)
  (  32 :    1,   0)  (  33 :    1,   1)  (  34 :    1,   2)  (  35 :    1,   3)
  (  36 :    1,   4)  (  37 :    1,   5)  (  38 :    1,   6)  (  39 :    1,   7)
  (  40 :    1,   8)  (  41 :    1,   9)  (  42 :    1,  10)  (  43 :    1,  11)
  (  44 :    1,  12)  (  45 :    1,  13)  (  46 :    1,  14)  (  47 :    1,  15)
  (  48 :    1,  16)  (  49 :    1,  17)  (  50 :    1,  18)  (  51 :    1,  19)
  (  52 :    1,  20)  (  53 :    1,  21)  (  54 :    1,  22)  (  55 :    1,  23)
  (  56 :    1,  24)  (  57 :    1,  25)  (  58 :    1,  26)  (  59 :    1,  27)
  (  60 :    1,  28)  (  61 :    1,  29)  (  62 :    1,  30)  (  63 :    1,  31)
  (  64 :    2,   0)  (  65 :    2,   1)  (  66 :    2,   2)  (  67 :    2,   3)
  (  68 :    2,   4)  (  69 :    2,   5)  (  70 :    2,   6)  (  71 :    2,   7)
  (  72 :    2,   8)  (  73 :    2,   9)  (  74 :    2,  10)  (  75 :    2,  11)
  (  76 :    2,  12)  (  77 :    2,  13)  (  78 :    2,  14)  (  79 :    2,  15)
  (  80 :    2,  16)  (  81 :    2,  17)  (  82 :    2,  18)  (  83 :    2,  19)
  (  84 :    2,  20)  (  85 :    2,  21)  (  86 :    2,  22)  (  87 :    2,  23)
  (  88 :    2,  24)  (  89 :    2,  25)  (  90 :    2,  26)  (  91 :    2,  27)
  (  92 :    2,  28)  (  93 :    2,  29)  (  94 :    2,  30)  (  95 :    2,  31)
 HINT in environment.F:814 The compiler target flags (x86_avx2) used to build
   this binary cannot exploit all extensions of this CPU model (x86_avx512).
   Consider compiler target flags as part of FCFLAGS and CFLAGS (ARCH file).
 HINT in environment.F:814 The compiler target flags (x86_avx2) used to build
   this binary cannot exploit all extensions of this CPU model (x86_avx512).
   Consider compiler target flags as part of FCFLAGS and CFLAGS (ARCH file).
 HINT in environment.F:814 The compiler target flags (x86_avx2) used to build
   this binary cannot exploit all extensions of this CPU model (x86_avx512).
   Consider compiler target flags as part of FCFLAGS and CFLAGS (ARCH file).

 VIB| Vibrational Analysis Info
 VIB| REPLICA Nr.    1- Energy and Forces for particle:    7  coordinate: X + DX
 VIB|                                     Total Energy:          -2887.527194821
 VIB|    ATOM                            X                Y                Z
 VIB|      Ir                     -0.000317282      0.000001990      0.000011683           
 VIB|      Ir                      0.000022330      0.000006625     -0.000003362           
 VIB|      O                      -0.000013957      0.000010003     -0.000023973           
 VIB|      O                       0.000046913     -0.000029266     -0.000052629           
 VIB|      O                       0.000029883     -0.000006891      0.000009226           
 VIB|      O                       0.000048639     -0.000021027      0.000027593           
 VIB|      Ir                      0.000014297      0.000038009     -0.000008609           
 VIB|      O                      -0.000000192     -0.000024047     -0.000004090           
 VIB|      O                       0.000068757      0.000009056     -0.000020131           
 VIB|      O                       0.000016706      0.000028127     -0.000008301           
 VIB|      O                       0.000053668     -0.000026661      0.000044162           
 VIB|      Ir                      0.000039483      0.000015234     -0.000019148           
 VIB|      Ir                      0.000026067     -0.000039596     -0.000008253           
 VIB|      O                      -0.000006888     -0.000010550      0.000001216           
 VIB|      O                      -0.000000612     -0.000001929      0.000023092           
 VIB|      O                      -0.000007195     -0.000005779     -0.000006285           
 VIB|      O                      -0.000008631     -0.000002768      0.000012959           
 VIB|      Ir                     -0.000036394     -0.000026897      0.000036371           
 VIB|      O                       0.000007090      0.000004466      0.000005738           
 VIB|      O                      -0.000010844      0.000005261      0.000025217           
 VIB|      O                      -0.000035849     -0.000012372     -0.000025037           
 VIB|      O                      -0.000009114      0.000042934     -0.000023807           
 VIB|      Ir                      0.000016381     -0.000037143     -0.000012076           
 VIB|      Ir                      0.000042046     -0.000002291      0.000031693           
 VIB|      O                      -0.000005739      0.000000541      0.000002636           
 VIB|      O                      -0.000028543      0.000023496     -0.000015863           
 VIB|      O                       0.000012697      0.000006266     -0.000004736           
 VIB|      O                       0.000006798      0.000003161     -0.000014353           
 VIB|      Ir                      0.000062940      0.000025769     -0.000047042           
 VIB|      O                       0.000004680      0.000001905      0.000010948           
 VIB|      O                       0.000000812     -0.000031021     -0.000005152           
 VIB|      O                       0.000014921     -0.000036020     -0.000001699           
 VIB|      O                       0.000009556     -0.000012877     -0.000000199           
 VIB|      Ir                      0.000023315     -0.000013708      0.000023009           
 VIB|      Ir                      0.000031446      0.000005327      0.000007570           
 VIB|      O                      -0.000001753      0.000019229     -0.000001316           
 VIB|      O                      -0.000078334      0.000004510      0.000010409           
 VIB|      O                      -0.000018778      0.000014595      0.000021448           
 VIB|      O                      -0.000003236      0.000021692      0.000011401           
 VIB|      Ir                      0.000043195      0.000051197      0.000010206           
 VIB|      O                      -0.000007018     -0.000024305     -0.000006328           
 VIB|      O                       0.000018722     -0.000026191     -0.000035046           
 VIB|      O                      -0.000022679     -0.000013738      0.000008584           
 VIB|      O                      -0.000009953     -0.000071799     -0.000012094           
 VIB| REPLICA Nr.    2- Energy and Forces for particle:    7  coordinate: Y + DY
 VIB|                                     Total Energy:          -2887.527194801
 VIB|    ATOM                            X                Y                Z
 VIB|      Ir                      0.000022579     -0.000337500      0.000010867           
 VIB|      Ir                      0.000020803      0.000008398     -0.000003345           
 VIB|      O                      -0.000027599      0.000023819     -0.000023935           
 VIB|      O                      -0.000060690      0.000085253     -0.000051795           
 VIB|      O                       0.000011808      0.000011178      0.000009340           
 VIB|      O                      -0.000066632      0.000086025      0.000026660           
 VIB|      Ir                      0.000014247      0.000038183     -0.000009157           
 VIB|      O                      -0.000021717     -0.000002513     -0.000003506           
 VIB|      O                       0.000052376      0.000026163     -0.000020129           
 VIB|      O                       0.000013355      0.000028149     -0.000007721           
 VIB|      O                       0.000053826     -0.000023343      0.000043654           
 VIB|      Ir                      0.000044972      0.000014741     -0.000019791           
 VIB|      Ir                      0.000008719     -0.000022446     -0.000027063           
 VIB|      O                      -0.000006179     -0.000009054      0.000002147           
 VIB|      O                      -0.000005220     -0.000002663      0.000021200           
 VIB|      O                      -0.000005197     -0.000006201     -0.000006456           
 VIB|      O                      -0.000012465     -0.000001823      0.000007565           
 VIB|      Ir                     -0.000052395     -0.000012389      0.000057355           
 VIB|      O                       0.000011977      0.000007729      0.000005612           
 VIB|      O                      -0.000004559      0.000011054      0.000024614           
 VIB|      O                      -0.000033833     -0.000008440     -0.000025182           
 VIB|      O                      -0.000007502      0.000043382     -0.000024150           
 VIB|      Ir                      0.000016269     -0.000042545     -0.000011326           
 VIB|      Ir                      0.000024803      0.000015201      0.000050680           
 VIB|      O                      -0.000007184     -0.000000047      0.000001715           
 VIB|      O                      -0.000029383      0.000027324     -0.000010587           
 VIB|      O                       0.000013145      0.000004248     -0.000004526           
 VIB|      O                       0.000007674      0.000007625     -0.000012383           
 VIB|      Ir                      0.000048204      0.000041460     -0.000067987           
 VIB|      O                       0.000001606     -0.000003045      0.000010947           
 VIB|      O                      -0.000004940     -0.000037337     -0.000004738           
 VIB|      O                       0.000014280     -0.000037671     -0.000001302           
 VIB|      O                       0.000005710     -0.000014845     -0.000000026           
 VIB|      Ir                      0.000024254     -0.000014386      0.000023139           
 VIB|      Ir                      0.000030000      0.000006579      0.000007798           
 VIB|      O                       0.000000725      0.000016819     -0.000001372           
 VIB|      O                      -0.000080627      0.000005511      0.000009345           
 VIB|      O                      -0.000019218      0.000015084      0.000021567           
 VIB|      O                      -0.000004190      0.000023786      0.000012391           
 VIB|      Ir                      0.000046851      0.000047727      0.000010079           
 VIB|      O                      -0.000005609     -0.000026083     -0.000006402           
 VIB|      O                       0.000020672     -0.000028126     -0.000035074           
 VIB|      O                      -0.000019834     -0.000016922      0.000011986           
 VIB|      O                      -0.000006769     -0.000074760     -0.000015559           
 VIB| REPLICA Nr.    3- Energy and Forces for particle:    7  coordinate: Z + DZ
 VIB|                                     Total Energy:          -2887.527194737
 VIB|    ATOM                            X                Y                Z
 VIB|      Ir                      0.000032810      0.000011343     -0.000464528           
 VIB|      Ir                      0.000028689      0.000014590     -0.000027550           
 VIB|      O                      -0.000058191     -0.000020139      0.000060161           
 VIB|      O                      -0.000011012      0.000014364     -0.000001413           
 VIB|      O                       0.000003303     -0.000015256      0.000070901           
 VIB|      O                      -0.000022622      0.000029817      0.000077688           
 VIB|      Ir                     -0.000010249      0.000013311      0.000010596           
 VIB|      O                      -0.000027814     -0.000029630      0.000066980           
 VIB|      O                      -0.000009627     -0.000052709      0.000108464           
 VIB|      O                       0.000016375      0.000022133     -0.000011408           
 VIB|      O                       0.000047708     -0.000023588      0.000040495           
 VIB|      Ir                      0.000045414      0.000014832     -0.000019203           
 VIB|      Ir                      0.000025264     -0.000037459     -0.000029542           
 VIB|      O                      -0.000006149     -0.000009780      0.000001643           
 VIB|      O                       0.000001643     -0.000003539      0.000017568           
 VIB|      O                      -0.000008179     -0.000006233     -0.000006114           
 VIB|      O                      -0.000009834     -0.000001625      0.000008094           
 VIB|      Ir                     -0.000050477     -0.000002318      0.000041162           
 VIB|      O                       0.000008083      0.000006668      0.000003813           
 VIB|      O                      -0.000006954      0.000008290      0.000024657           
 VIB|      O                      -0.000031671     -0.000010731     -0.000023242           
 VIB|      O                      -0.000008943      0.000043679     -0.000022537           
 VIB|      Ir                      0.000015976     -0.000036725     -0.000011371           
 VIB|      Ir                      0.000026796      0.000013669      0.000029474           
 VIB|      O                      -0.000006442      0.000000549      0.000002262           
 VIB|      O                      -0.000028082      0.000025987     -0.000015679           
 VIB|      O                       0.000012589      0.000003240     -0.000004424           
 VIB|      O                       0.000006072      0.000009870     -0.000017850           
 VIB|      Ir                      0.000072835      0.000027144     -0.000063068           
 VIB|      O                       0.000003657     -0.000001936      0.000009195           
 VIB|      O                      -0.000001977     -0.000033422     -0.000005329           
 VIB|      O                       0.000015103     -0.000037440     -0.000000093           
 VIB|      O                       0.000007221     -0.000010653      0.000001782           
 VIB|      Ir                      0.000027403     -0.000010931      0.000021176           
 VIB|      Ir                      0.000007042     -0.000017793      0.000004845           
 VIB|      O                      -0.000005317      0.000013256      0.000003352           
 VIB|      O                      -0.000079489      0.000005562      0.000008681           
 VIB|      O                      -0.000019051      0.000014638      0.000020253           
 VIB|      O                      -0.000003294      0.000022931      0.000010783           
 VIB|      Ir                      0.000046785      0.000051273     -0.000007166           
 VIB|      O                      -0.000007512     -0.000026327     -0.000004078           
 VIB|      O                       0.000014128     -0.000032689     -0.000033109           
 VIB|      O                      -0.000019771     -0.000019781      0.000014821           
 VIB|      O                      -0.000012809     -0.000071947     -0.000009365           
 VIB| REPLICA Nr.    1- Energy and Forces for particle:    8  coordinate: X + DX
 VIB|                                     Total Energy:          -2887.527194788
 VIB|    ATOM                            X                Y                Z
 VIB|      Ir                      0.000041038      0.000018890      0.000026312           
 VIB|      Ir                     -0.000364998      0.000005348     -0.000015596           
 VIB|      O                      -0.000049469     -0.000011067     -0.000010240           
 VIB|      O                      -0.000019817      0.000013888     -0.000059419           
 VIB|      O                       0.000058717      0.000019794     -0.000006996           
 VIB|      O                      -0.000024470      0.000019784      0.000019893           
 VIB|      Ir                     -0.000013637      0.000033036      0.000009900           
 VIB|      O                      -0.000043951     -0.000046749     -0.000020566           
 VIB|      O                       0.000017968     -0.000023012      0.000009551           
 VIB|      O                       0.000010109      0.000026960     -0.000007643           
 VIB|      O                       0.000052541     -0.000030341      0.000044260           
 VIB|      Ir                      0.000049236      0.000007074     -0.000012017           
 VIB|      Ir                      0.000017930     -0.000030923     -0.000018258           
 VIB|      O                      -0.000005991     -0.000007068      0.000001764           
 VIB|      O                       0.000053397     -0.000027486      0.000042244           
 VIB|      O                      -0.000006534     -0.000005373     -0.000006404           
 VIB|      O                      -0.000009176     -0.000004810      0.000008602           
 VIB|      Ir                     -0.000041495     -0.000013119      0.000050492           
[...]
 flops   296 x    64 x   140           5665013760       0.0%    100.0%      0.0%
 flops   288 x    64 x   145           5708759040       0.0%    100.0%      0.0%
 flops    96 x    64 x   145           5708759040       0.0%    100.0%      0.0%
 flops   296 x    64 x   145           5867335680       0.0%    100.0%      0.0%
 flops   192 x    50 x    96           5905612800       0.0%    100.0%      0.0%
 flops     5 x     5 x   128           5977036800       0.0%    100.0%      0.0%
 flops   192 x    32 x   153           6023725056       0.0%    100.0%      0.0%
 flops   288 x   128 x   153           6023725056       0.0%    100.0%      0.0%
 flops   320 x   128 x   140           6124339200       0.0%    100.0%      0.0%
 flops   296 x   128 x   153           6191050752       0.0%    100.0%      0.0%
 flops   192 x    64 x   118           6194331648       0.0%    100.0%      0.0%
 flops   214 x    32 x    96           6319005696       0.0%    100.0%      0.0%
 flops   320 x   128 x   145           6343065600       0.0%    100.0%      0.0%
 flops   288 x   136 x   153           6400207872       0.0%    100.0%      0.0%
 flops   320 x   136 x   140           6507110400       0.0%    100.0%      0.0%
 flops   296 x   136 x   153           6577991424       0.0%    100.0%      0.0%
 flops   224 x    32 x    96           6614286336       0.0%    100.0%      0.0%
 flops   192 x    64 x   128           6719275008       0.0%    100.0%      0.0%
 flops   320 x   136 x   145           6739507200       0.0%    100.0%      0.0%
 flops   192 x    64 x   140           7349207040       0.0%    100.0%      0.0%
 flops   288 x    50 x   160           7382016000       0.0%    100.0%      0.0%
 flops   306 x    32 x   118           7404162048       0.0%    100.0%      0.0%
 flops   192 x   118 x   153           7404162048       0.0%    100.0%      0.0%
 flops   296 x    50 x   160           7587072000       0.0%    100.0%      0.0%
 flops   192 x    64 x   145           7611678720       0.0%    100.0%      0.0%
 flops   192 x   128 x   153           8031633408       0.0%    100.0%      0.0%
 flops   306 x    50 x   128           8366284800       0.0%    100.0%      0.0%
 flops   306 x    32 x   136           8533610496       0.0%    100.0%      0.0%
 flops   214 x    64 x   153           8951924736       0.0%    100.0%      0.0%
 flops   214 x    96 x   140           9215216640       0.0%    100.0%      0.0%
 flops   224 x    64 x   153           9370238976       0.0%    100.0%      0.0%
 flops   214 x    96 x   145           9544331520       0.0%    100.0%      0.0%
 flops   224 x    96 x   140           9645834240       0.0%    100.0%      0.0%
 flops   224 x    96 x   145           9990328320       0.0%    100.0%      0.0%
 flops   320 x    32 x   153          10039541760       0.0%    100.0%      0.0%
 flops    26 x    18 x    26          10396339200       0.0%    100.0%      0.0%
 flops   320 x    64 x   128          11198791680       0.0%    100.0%      0.0%
 flops   192 x    32 x    96          11338776576       0.0%    100.0%      0.0%
 flops   320 x    64 x   136          11898716160       0.0%    100.0%      0.0%
 flops   288 x    64 x   153          12047450112       0.0%    100.0%      0.0%
 flops    96 x    64 x   153          12047450112       0.0%    100.0%      0.0%
 flops   320 x    64 x   140          12248678400       0.0%    100.0%      0.0%
 flops   296 x    64 x   153          12382101504       0.0%    100.0%      0.0%
 flops    26 x    18 x    13          12475607040       0.0%    100.0%      0.0%
 flops    13 x    18 x    26          12475607040       0.0%    100.0%      0.0%
 flops   320 x    64 x   145          12686131200       0.0%    100.0%      0.0%
 flops   320 x   128 x   153          13386055680       0.0%    100.0%      0.0%
 flops    26 x    32 x    32          13648527360       0.0%    100.0%      0.0%
 flops   288 x    32 x   160          14173470720       0.0%    100.0%      0.0%
 flops   320 x   136 x   153          14222684160       0.0%    100.0%      0.0%
 flops   296 x    32 x   160          14567178240       0.0%    100.0%      0.0%
 flops    13 x    18 x    13          14970728448       0.0%    100.0%      0.0%
 flops    26 x    22 x    26          15562060800       0.0%    100.0%      0.0%
 flops   306 x    32 x   128          16063266816       0.0%    100.0%      0.0%
 flops   192 x    64 x   153          16063266816       0.0%    100.0%      0.0%
 flops    13 x    32 x    32          16378232832       0.0%    100.0%      0.0%
 flops   320 x    50 x   160          16404480000       0.0%    100.0%      0.0%
 flops   192 x    96 x   140          16535715840       0.0%    100.0%      0.0%
 flops   214 x    64 x    96          16850681856       0.0%    100.0%      0.0%
 flops   192 x    96 x   145          17126277120       0.0%    100.0%      0.0%
 flops   224 x    64 x    96          17638096896       0.0%    100.0%      0.0%
 flops     5 x    32 x     5          18643353600       0.0%    100.0%      0.0%
 flops    26 x    22 x    13          18674472960       0.0%    100.0%      0.0%
 flops    13 x    22 x    26          18674472960       0.0%    100.0%      0.0%
 flops   306 x    50 x    96          18824140800       0.0%    100.0%      0.0%
 flops   306 x    64 x   118          19744432128       0.0%    100.0%      0.0%
 flops   214 x    96 x   153          20141830656       0.0%    100.0%      0.0%
 flops   288 x   160 x   140          20669644800       0.0%    100.0%      0.0%
 flops   224 x    96 x   153          21083037696       0.0%    100.0%      0.0%
 flops   296 x   160 x   140          21243801600       0.0%    100.0%      0.0%
 flops   288 x   160 x   145          21407846400       0.0%    100.0%      0.0%
 flops   296 x   160 x   145          22002508800       0.0%    100.0%      0.0%
 flops    13 x    22 x    13          22409367552       0.0%    100.0%      0.0%
 flops   306 x    64 x   136          22756294656       0.0%    100.0%      0.0%
 flops   320 x    64 x   153          26772111360       0.0%    100.0%      0.0%
 flops     5 x     5 x    96          26896665600       0.0%    100.0%      0.0%
 flops   192 x    64 x    96          30236737536       0.0%    100.0%      0.0%
 flops   306 x    50 x   160          31373568000       0.0%    100.0%      0.0%
 flops   320 x    32 x   160          31496601600       0.0%    100.0%      0.0%
 flops     5 x    26 x   118          33708729600       0.0%    100.0%      0.0%
 flops    26 x     5 x   118          33708729600       0.0%    100.0%      0.0%
 flops   192 x    96 x   153          36142350336       0.0%    100.0%      0.0%
 flops   306 x    32 x    96          36142350336       0.0%    100.0%      0.0%
 flops     5 x    26 x   128          36565401600       0.0%    100.0%      0.0%
 flops    26 x     5 x   128          36565401600       0.0%    100.0%      0.0%
 flops   288 x    64 x   160          37795921920       0.0%    100.0%      0.0%
 flops   296 x    64 x   160          38845808640       0.0%    100.0%      0.0%
 flops     5 x    13 x   118          40450475520       0.0%    100.0%      0.0%
 flops    13 x     5 x   118          40450475520       0.0%    100.0%      0.0%
 flops   306 x    64 x   128          42835378176       0.0%    100.0%      0.0%
 flops     5 x    13 x   128          43878481920       0.0%    100.0%      0.0%
 flops    13 x     5 x   128          43878481920       0.0%    100.0%      0.0%
 flops   288 x   160 x   153          45177937920       0.0%    100.0%      0.0%
 flops   320 x   160 x   140          45932544000       0.0%    100.0%      0.0%
 flops   296 x   160 x   153          46432880640       0.0%    100.0%      0.0%
 flops   320 x   160 x   145          47572992000       0.0%    100.0%      0.0%
 flops   306 x    32 x   160          60237250560       0.0%    100.0%      0.0%
 flops   320 x    64 x   160          83990937600       0.0%    100.0%      0.0%
 flops   306 x    64 x    96          96379600896       0.0%    100.0%      0.0%
 flops   320 x   160 x   153         100395417600       0.0%    100.0%      0.0%
 flops     5 x    32 x    26         121181798400       0.0%    100.0%      0.0%
 flops    26 x    32 x     5         121181798400       0.0%    100.0%      0.0%
 flops     5 x    32 x    13         145418158080       0.0%    100.0%      0.0%
 flops    13 x    32 x     5         145418158080       0.0%    100.0%      0.0%
 flops   306 x    64 x   160         160632668160       0.0%    100.0%      0.0%
 flops     5 x    26 x    96         164544307200       0.0%    100.0%      0.0%
 flops    26 x     5 x    96         164544307200       0.0%    100.0%      0.0%
 flops     5 x    13 x    96         197453168640       0.0%    100.0%      0.0%
 flops    13 x     5 x    96         197453168640       0.0%    100.0%      0.0%
 flops    26 x    26 x   118         230062079520       0.0%    100.0%      0.0%
 flops    26 x    26 x   128         249558865920       0.0%    100.0%      0.0%
 flops    26 x    13 x   118         262928090880       0.0%    100.0%      0.0%
 flops    13 x    26 x   118         262928090880       0.0%    100.0%      0.0%
 flops    26 x    13 x   128         285210132480       0.0%    100.0%      0.0%
 flops    13 x    26 x   128         285210132480       0.0%    100.0%      0.0%
 flops    13 x    13 x   118         322086911328       0.0%    100.0%      0.0%
 flops    13 x    13 x   128         349382412288       0.0%    100.0%      0.0%
 flops    26 x    32 x    26         787681689600       0.0%    100.0%      0.0%
 flops    26 x    32 x    13         945218027520       0.0%    100.0%      0.0%
 flops    13 x    32 x    26         945218027520       0.0%    100.0%      0.0%
 flops    26 x    26 x    96        1123014896640       0.0%    100.0%      0.0%
 flops    13 x    32 x    13        1134261633024       0.0%    100.0%      0.0%
 flops    26 x    13 x    96        1283445596160       0.0%    100.0%      0.0%
 flops    13 x    26 x    96        1283445596160       0.0%    100.0%      0.0%
 flops    13 x    13 x    96        1572220855296       0.0%    100.0%      0.0%
 flops inhomo. stacks               1119735406656     100.0%      0.0%      0.0%
 flops total                        16.242719E+12       6.9%     93.1%      0.0%
 flops max/rank                    201.582844E+09       7.2%     92.8%      0.0%
 matmuls inhomo. stacks                    170880     100.0%      0.0%      0.0%
 matmuls total                          535828896       0.0%    100.0%      0.0%
 number of processed stacks              22710672       0.8%     99.2%      0.0%
 average stack size                                     1.0      23.8       0.0
 marketing flops                    15.061663E+12
 -------------------------------------------------------------------------------
 # multiplications                           4346
 max memory usage/rank             377.139200E+06
 # max total images/rank                        2
 # max 3D layers                                1
 # MPI messages exchanged                 5511168
 MPI messages size (bytes):
  total size                         1.014338E+12
  min size                           0.000000E+00
  max size                         424.960000E+03
  average size                     184.051328E+03
 MPI breakdown and total messages size (bytes):
             size <=      128              395160                        0
       128 < size <=     8192               12015                 98426880
      8192 < size <=    32768               63279               1474480800
     32768 < size <=   131072             1902639             190484368128
    131072 < size <=  4194304             3138075             822281032800
   4194304 < size <= 16777216                   0                        0
  16777216 < size                               0                        0
 -------------------------------------------------------------------------------

 *** WARNING in dbcsr_mm.F:295 :: Using a non-square number of MPI ranks ***
 *** might lead to poor performance. Used ranks: 32 Suggested: 36 64     ***

 -------------------------------------------------------------------------------
 -                                                                             -
 -                      DBCSR MESSAGE PASSING PERFORMANCE                      -
 -                                                                             -
 -------------------------------------------------------------------------------
 ROUTINE             CALLS      AVE VOLUME [Bytes]
 MP_Group             3635
 MP_Bcast              256                     12.
 MP_Allreduce        25202                      8.
 MP_Alltoall         92648                 128669.
 MP_Wait            278144
 MP_ISend           136758                  83261.
 MP_IRecv           136758                  80276.
 MP_Memory          351668
 -------------------------------------------------------------------------------

 MEMORY| Estimated peak process memory [MiB]                                 360

 -------------------------------------------------------------------------------
 ----                             MULTIGRID INFO                            ----
 -------------------------------------------------------------------------------
 count for grid        1:         790272          cutoff [a.u.]          300.00
 count for grid        2:        1216128          cutoff [a.u.]          100.00
 count for grid        3:         705792          cutoff [a.u.]           33.33
 count for grid        4:         295296          cutoff [a.u.]           11.11
 total gridlevel count  :        3007488

 -------------------------------------------------------------------------------
 -                                                                             -
 -                         MESSAGE PASSING PERFORMANCE                         -
 -                                                                             -
 -------------------------------------------------------------------------------

 ROUTINE             CALLS      AVE VOLUME [Bytes]
 MP_Group                5
 MP_Bcast              108                5693747.
 MP_Allreduce           79                  13300.
 MP_Sync                 4
 -------------------------------------------------------------------------------


 -------------------------------------------------------------------------------
 -                                                                             -
 -                           R E F E R E N C E S                               -
 -                                                                             -
 -------------------------------------------------------------------------------
 
 CP2K version 7.1, the CP2K developers group (2019).
 CP2K is freely available from https://www.cp2k.org/ .

 Schuett, Ole; Messmer, Peter; Hutter, Juerg; VandeVondele, Joost. 
 Electronic Structure Calculations on Graphics Processing Units, John
 Wiley & Sons, Ltd, 173-190 (2016). 
 GPU-Accelerated Sparse Matrix-Matrix Multiplication for
 Linear Scaling Density Functional Theory.
 https://dx.doi.org/10.1002/9781118670712.ch8

 Borstnik, U; VandeVondele, J; Weber, V; Hutter, J. 
 PARALLEL COMPUTING, 40 (5-6), 47-58 (2014). 
 Sparse matrix multiplication: The distributed block-compressed sparse
 row library.
 https://dx.doi.org/10.1016/j.parco.2014.03.012

 Hutter, J; Iannuzzi, M; Schiffmann, F; VandeVondele, J. 
 WIREs Comput Mol Sci., 4 (1), 15-25 (2014). 
 CP2K: atomistic simulations of condensed matter systems.
 https://dx.doi.org/10.1002/wcms.1159

 Marek, A; Blum, V; Johanni, R; Havu, V; Lang, B; Auckenthaler, T;
 Heinecke, A; Bungartz, H; Lederer, H. 
 Journal of Physics: Condensed Matter, 26 (21), (2014). 
 The ELPA library: scalable parallel eigenvalue solutions for
 electronic structure
 theory and computational science.
 https://dx.doi.org/10.1088/0953-8984/26/21/213201

 Grimme, S; Ehrlich, S; Goerigk, L. 
 JOURNAL OF COMPUTATIONAL CHEMISTRY, 32, 1456 (2011). 
 Effect of the damping function in dispersion corrected density functional theory.
 https://dx.doi.org/10.1002/jcc.21759

 Grimme, S; Antony, J; Ehrlich, S; Krieg, H. 
 JOURNAL OF CHEMICAL PHYSICS, 132 (15), 154104 (2010). 
 A consistent and accurate ab initio parametrization of density
 functional dispersion correction (DFT-D) for the 94 elements H-Pu.
 https://dx.doi.org/10.1063/1.3382344

 VandeVondele, J; Hutter, J. 
 JOURNAL OF CHEMICAL PHYSICS, 127 (11), 114105 (2007). 
 Gaussian basis sets for accurate calculations on molecular systems in
 gas and condensed phases.
 https://dx.doi.org/10.1063/1.2770708

 Krack, M. 
 THEORETICAL CHEMISTRY ACCOUNTS, 114 (1-3), 145-152 (2005). 
 Pseudopotentials for H to Kr optimized for gradient-corrected
 exchange-correlation functionals.
 https://dx.doi.org/10.1007/s00214-005-0655-y

 VandeVondele, J; Krack, M; Mohamed, F; Parrinello, M; Chassaing, T;
 Hutter, J. COMPUTER PHYSICS COMMUNICATIONS, 167 (2), 103-128 (2005). 
 QUICKSTEP: Fast and accurate density functional calculations using a
 mixed Gaussian and plane waves approach.
 https://dx.doi.org/10.1016/j.cpc.2004.12.014

 Frigo, M; Johnson, SG. 
 PROCEEDINGS OF THE IEEE, 93 (2), 216-231 (2005). 
 The design and implementation of FFTW3.
 https://dx.doi.org/10.1109/JPROC.2004.840301

 Kolafa, J. 
 JOURNAL OF COMPUTATIONAL CHEMISTRY, 25 (3), 335-342 (2004). 
 Time-reversible always stable predictor-corrector method for molecular dynamics of polarizable molecules.
 https://dx.doi.org/10.1002/jcc.10385

 VandeVondele, J; Hutter, J. 
 JOURNAL OF CHEMICAL PHYSICS, 118 (10), 4365-4369 (2003). 
 An efficient orbital transformation method for electronic structure
 calculations.
 https://dx.doi.org/10.1063/1.1543154

 Hartwigsen, C; Goedecker, S; Hutter, J. 
 PHYSICAL REVIEW B, 58 (7), 3641-3662 (1998). 
 Relativistic separable dual-space Gaussian pseudopotentials from H to Rn.
 https://dx.doi.org/10.1103/PhysRevB.58.3641

 Lippert, G; Hutter, J; Parrinello, M. 
 MOLECULAR PHYSICS, 92 (3), 477-487 (1997). 
 A hybrid Gaussian and plane wave density functional scheme.
 https://dx.doi.org/10.1080/002689797170220

 Perdew, JP; Burke, K; Ernzerhof, M. 
 PHYSICAL REVIEW LETTERS, 77 (18), 3865-3868 (1996). 
 Generalized gradient approximation made simple.
 https://dx.doi.org/10.1103/PhysRevLett.77.3865

 Goedecker, S; Teter, M; Hutter, J. 
 PHYSICAL REVIEW B, 54 (3), 1703-1710 (1996). 
 Separable dual-space Gaussian pseudopotentials.
 https://dx.doi.org/10.1103/PhysRevB.54.1703


 -------------------------------------------------------------------------------
 -                                                                             -
 -                                T I M I N G                                  -
 -                                                                             -
 -------------------------------------------------------------------------------
 SUBROUTINE                       CALLS  ASD         SELF TIME        TOTAL TIME
                                MAXIMUM       AVERAGE  MAXIMUM  AVERAGE  MAXIMUM
 CP2K                                 1  1.0    0.017    0.030 2522.987 2523.032
 vb_anal                              1  2.0 2522.197 2522.343 2522.578 2522.686
 -------------------------------------------------------------------------------

 The number of warnings for this run is : 1
 
 -------------------------------------------------------------------------------
  **** **** ******  **  PROGRAM ENDED AT                 2024-04-24 04:02:34.433
 ***** ** ***  *** **   PROGRAM RAN ON                                   c53-028
 **    ****   ******    PROGRAM RAN BY                                  ybzhuang
 ***** **    ** ** **   PROGRAM PROCESS ID                                111846
  **** **  *******  **  PROGRAM STOPPED IN /data/ybzhuang/workdirs/25-SIO-raman/
                                           01.IrO2/03.static_raman
