 DBCSR| CPU Multiplication driver                                           XSMM
 DBCSR| Multrec recursion limit                                              512
 DBCSR| Multiplication stack size                                           1000
 DBCSR| Maximum elements for images                                    UNLIMITED
 DBCSR| Multiplicative factor virtual images                                   1
 DBCSR| Use multiplication densification                                       T
 DBCSR| Multiplication size stacks                                             3
 DBCSR| Number of 3D layers                                               SINGLE
 DBCSR| Use MPI memory allocation                                              T
 DBCSR| Use RMA algorithm                                                      F
 DBCSR| Use Communication thread                                               T
 DBCSR| Communication thread load                                             87


  **** **** ******  **  PROGRAM STARTED AT               2021-12-27 13:18:47.997
 ***** ** ***  *** **   PROGRAM STARTED ON                               c51-012
 **    ****   ******    PROGRAM STARTED BY                              ybzhuang
 ***** **    ** ** **   PROGRAM PROCESS ID                                  4877
  **** **  *******  **  PROGRAM STARTED IN /data/ybzhuang/workdirs/07-rutile110-
                                           ml/01.new_dpgen/08.odd_even/00.5L_geo
                                           _opt

 CP2K| version string:                                          CP2K version 7.1
 CP2K| source code revision number:                                  git:e635599
 CP2K| cp2kflags: libint fftw3 libxc elpa parallel mpi3 scalapack xsmm spglib   
 CP2K| is freely available from                            https://www.cp2k.org/
 CP2K| Program compiled at                           Mon Mar 8 20:53:19 CST 2021
 CP2K| Program compiled on                                                 mgt01
 CP2K| Program compiled for                                                local
 CP2K| Data directory path                        /data/share/apps/cp2k/7.1/data
 CP2K| Input file name                                                 input.inp

 GLOBAL| Force Environment number                                              1
 GLOBAL| Basis set file name                                        BASIS_MOLOPT
 GLOBAL| Potential file name                                      GTH_POTENTIALS
 GLOBAL| MM Potential file name                                     MM_POTENTIAL
 GLOBAL| Coordinate file name                                      __STD_INPUT__
 GLOBAL| Method name                                                        CP2K
 GLOBAL| Project name                                                      DPGEN
 GLOBAL| Preferred FFT library                                             FFTW3
 GLOBAL| Preferred diagonalization lib.                                     ELPA
 GLOBAL| Run type                                                        GEO_OPT
 GLOBAL| All-to-all communication in single precision                          F
 GLOBAL| FFTs using library dependent lengths                                  F
 GLOBAL| Global print level                                               MEDIUM
 GLOBAL| MPI I/O enabled                                                       T
 GLOBAL| Total number of message passing processes                            72
 GLOBAL| Number of threads for this process                                    1
 GLOBAL| This output is from process                                           0
 GLOBAL| CPU model name                Intel(R) Xeon(R) CPU E5-2680 v3 @ 2.50GHz
 GLOBAL| CPUID                                                              1002

 MEMORY| system memory details [Kb]
 MEMORY|                        rank 0           min           max       average
 MEMORY| MemTotal             65549312      65234672      65549312      65339552
 MEMORY| MemFree              62085076      61701424      62085076      61860133
 MEMORY| Buffers                     0             0             0             0
 MEMORY| Cached                 167512        126156        167512        144305
 MEMORY| Slab                   218980        212732        218980        215584
 MEMORY| SReclaimable            56640         54588         56640         55560
 MEMORY| MemLikelyFree        62309228      61882168      62309228      62059998


 *** Fundamental physical constants (SI units) ***

 *** Literature: B. J. Mohr and B. N. Taylor,
 ***             CODATA recommended values of the fundamental physical
 ***             constants: 2006, Web Version 5.1
 ***             http://physics.nist.gov/constants

 Speed of light in vacuum [m/s]                             2.99792458000000E+08
 Magnetic constant or permeability of vacuum [N/A**2]       1.25663706143592E-06
 Electric constant or permittivity of vacuum [F/m]          8.85418781762039E-12
 Planck constant (h) [J*s]                                  6.62606896000000E-34
 Planck constant (h-bar) [J*s]                              1.05457162825177E-34
 Elementary charge [C]                                      1.60217648700000E-19
 Electron mass [kg]                                         9.10938215000000E-31
 Electron g factor [ ]                                     -2.00231930436220E+00
 Proton mass [kg]                                           1.67262163700000E-27
 Fine-structure constant                                    7.29735253760000E-03
 Rydberg constant [1/m]                                     1.09737315685270E+07
 Avogadro constant [1/mol]                                  6.02214179000000E+23
 Boltzmann constant [J/K]                                   1.38065040000000E-23
 Atomic mass unit [kg]                                      1.66053878200000E-27
 Bohr radius [m]                                            5.29177208590000E-11

 *** Conversion factors ***

 [u] -> [a.u.]                                              1.82288848426455E+03
 [Angstrom] -> [Bohr] = [a.u.]                              1.88972613288564E+00
 [a.u.] = [Bohr] -> [Angstrom]                              5.29177208590000E-01
 [a.u.] -> [s]                                              2.41888432650478E-17
 [a.u.] -> [fs]                                             2.41888432650478E-02
 [a.u.] -> [J]                                              4.35974393937059E-18
 [a.u.] -> [N]                                              8.23872205491840E-08
 [a.u.] -> [K]                                              3.15774647902944E+05
 [a.u.] -> [kJ/mol]                                         2.62549961709828E+03
 [a.u.] -> [kcal/mol]                                       6.27509468713739E+02
 [a.u.] -> [Pa]                                             2.94210107994716E+13
 [a.u.] -> [bar]                                            2.94210107994716E+08
 [a.u.] -> [atm]                                            2.90362800883016E+08
 [a.u.] -> [eV]                                             2.72113838565563E+01
 [a.u.] -> [Hz]                                             6.57968392072181E+15
 [a.u.] -> [1/cm] (wave numbers)                            2.19474631370540E+05
 [a.u./Bohr**2] -> [1/cm]                                   5.14048714338585E+03
 

 CELL_TOP| Volume [angstrom^3]:                                         6908.749
 CELL_TOP| Vector a [angstrom    12.991     0.000     0.000    |a| =      12.991
 CELL_TOP| Vector b [angstrom     0.000    11.836     0.000    |b| =      11.836
 CELL_TOP| Vector c [angstrom     0.000     0.000    44.932    |c| =      44.932
 CELL_TOP| Angle (b,c), alpha [degree]:                                   90.000
 CELL_TOP| Angle (a,c), beta  [degree]:                                   90.000
 CELL_TOP| Angle (a,b), gamma [degree]:                                   90.000
 CELL_TOP| Numerically orthorhombic:                                         YES

 GENERATE|  Preliminary Number of Bonds generated:                             0
 GENERATE|  Achieved consistency in connectivity generation.

 CELL| Volume [angstrom^3]:                                             6908.749
 CELL| Vector a [angstrom]:      12.991     0.000     0.000    |a| =      12.991
 CELL| Vector b [angstrom]:       0.000    11.836     0.000    |b| =      11.836
 CELL| Vector c [angstrom]:       0.000     0.000    44.932    |c| =      44.932
 CELL| Angle (b,c), alpha [degree]:                                       90.000
 CELL| Angle (a,c), beta  [degree]:                                       90.000
 CELL| Angle (a,b), gamma [degree]:                                       90.000
 CELL| Numerically orthorhombic:                                             YES

 CELL_REF| Volume [angstrom^3]:                                         6908.749
 CELL_REF| Vector a [angstrom    12.991     0.000     0.000    |a| =      12.991
 CELL_REF| Vector b [angstrom     0.000    11.836     0.000    |b| =      11.836
 CELL_REF| Vector c [angstrom     0.000     0.000    44.932    |c| =      44.932
 CELL_REF| Angle (b,c), alpha [degree]:                                   90.000
 CELL_REF| Angle (a,c), beta  [degree]:                                   90.000
 CELL_REF| Angle (a,b), gamma [degree]:                                   90.000
 CELL_REF| Numerically orthorhombic:                                         YES

 *******************************************************************************
 *******************************************************************************
 **                                                                           **
 **     #####                         ##              ##                      **
 **    ##   ##            ##          ##              ##                      **
 **   ##     ##                       ##            ######                    **
 **   ##     ##  ##   ##  ##   #####  ##  ##   ####   ##    #####    #####    **
 **   ##     ##  ##   ##  ##  ##      ## ##   ##      ##   ##   ##  ##   ##   **
 **   ##  ## ##  ##   ##  ##  ##      ####     ###    ##   ######   ######    **
 **    ##  ###   ##   ##  ##  ##      ## ##      ##   ##   ##       ##        **
 **     #######   #####   ##   #####  ##  ##  ####    ##    #####   ##        **
 **           ##                                                    ##        **
 **                                                                           **
 **                                                ... make the atoms dance   **
 **                                                                           **
 **            Copyright (C) by CP2K developers group (2000 - 2019)           **
 **                                                                           **
 *******************************************************************************

 DFT| Spin restricted Kohn-Sham (RKS) calculation                            RKS
 DFT| Multiplicity                                                             1
 DFT| Number of spin states                                                    1
 DFT| Charge                                                                   0
 DFT| Self-interaction correction (SIC)                                       NO
 DFT| Cutoffs: density                                              1.000000E-10
 DFT|          gradient                                             1.000000E-10
 DFT|          tau                                                  1.000000E-10
 DFT|          cutoff_smoothing_range                               0.000000E+00
 DFT| XC density smoothing                                                  NONE
 DFT| XC derivatives                                                          PW
 FUNCTIONAL| ROUTINE=NEW
 FUNCTIONAL| PBE:
 FUNCTIONAL| J.P.Perdew, K.Burke, M.Ernzerhof, Phys. Rev. Letter, vol. 77, n 18,
 FUNCTIONAL|  pp. 3865-3868, (1996){spin unpolarized}                           
 vdW POTENTIAL|                                                   Pair Potential
 vdW POTENTIAL|          DFT-D3 (Version 3.1)
 vdW POTENTIAL|          Potential Form: S. Grimme et al, JCP 132: 154104 (2010)
 vdW POTENTIAL|          Zero Damping
 vdW POTENTIAL|          Cutoff Radius [Bohr]:                             20.00
 vdW POTENTIAL|          s6 Scaling Factor:                               1.0000
 vdW POTENTIAL|          sr6 Scaling Factor:                              1.2170
 vdW POTENTIAL|          s8 Scaling Factor:                               0.7220
 vdW POTENTIAL|          Cutoff for CN calculation:                   0.1000E-05

 QS| Method:                                                                 GPW
 QS| Density plane wave grid type                        NON-SPHERICAL FULLSPACE
 QS| Number of grid levels:                                                    5
 QS| Density cutoff [a.u.]:                                                250.0
 QS| Multi grid cutoff [a.u.]: 1) grid level                               250.0
 QS|                           2) grid level                                83.3
 QS|                           3) grid level                                27.8
 QS|                           4) grid level                                 9.3
 QS|                           5) grid level                                 3.1
 QS| Grid level progression factor:                                          3.0
 QS| Relative density cutoff [a.u.]:                                        30.0
 QS| Consistent realspace mapping and integration 
 QS| Interaction thresholds: eps_pgf_orb:                                3.2E-07
 QS|                         eps_filter_matrix:                          0.0E+00
 QS|                         eps_core_charge:                            1.0E-15
 QS|                         eps_rho_gspace:                             1.0E-13
 QS|                         eps_rho_rspace:                             1.0E-13
 QS|                         eps_gvg_rspace:                             3.2E-07
 QS|                         eps_ppl:                                    1.0E-02
 QS|                         eps_ppnl:                                   3.2E-09


 ATOMIC KIND INFORMATION

  1. Atomic kind: O                                     Number of atoms:     176

     Orbital Basis Set                                        DZVP-MOLOPT-SR-GTH

       Number of orbital shell sets:                                           1
       Number of orbital shells:                                               5
       Number of primitive Cartesian functions:                                5
       Number of Cartesian basis functions:                                   14
       Number of spherical basis functions:                                   13
       Norm type:                                                              2

       Normalised Cartesian orbitals:

                        Set   Shell   Orbital            Exponent    Coefficient

                          1       1    2s               10.389228       0.396646
                                                         3.849621       0.208811
                                                         1.388401      -0.301641
                                                         0.496955      -0.274061
                                                         0.162492      -0.033677

                          1       2    3s               10.389228       0.303673
                                                         3.849621       0.240943
                                                         1.388401      -0.313066
                                                         0.496955      -0.043055
                                                         0.162492       0.213991

                          1       3    3px              10.389228      -1.530415
                                                         3.849621      -1.371928
                                                         1.388401      -0.761951
                                                         0.496955      -0.253695
                                                         0.162492      -0.035541
                          1       3    3py              10.389228      -1.530415
                                                         3.849621      -1.371928
                                                         1.388401      -0.761951
                                                         0.496955      -0.253695
                                                         0.162492      -0.035541
                          1       3    3pz              10.389228      -1.530415
                                                         3.849621      -1.371928
                                                         1.388401      -0.761951
                                                         0.496955      -0.253695
                                                         0.162492      -0.035541

                          1       4    4px              10.389228      -0.565392
                                                         3.849621      -0.038231
                                                         1.388401      -0.382373
                                                         0.496955       0.179070
                                                         0.162492       0.122714
                          1       4    4py              10.389228      -0.565392
                                                         3.849621      -0.038231
                                                         1.388401      -0.382373
                                                         0.496955       0.179070
                                                         0.162492       0.122714
                          1       4    4pz              10.389228      -0.565392
                                                         3.849621      -0.038231
                                                         1.388401      -0.382373
                                                         0.496955       0.179070
                                                         0.162492       0.122714

                          1       5    4dx2             10.389228       1.867377
                                                         3.849621       0.670994
                                                         1.388401       1.353441
                                                         0.496955       0.273538
                                                         0.162492       0.006620
                          1       5    4dxy             10.389228       3.234392
                                                         3.849621       1.162195
                                                         1.388401       2.344229
                                                         0.496955       0.473781
                                                         0.162492       0.011466
                          1       5    4dxz             10.389228       3.234392
                                                         3.849621       1.162195
                                                         1.388401       2.344229
                                                         0.496955       0.473781
                                                         0.162492       0.011466
                          1       5    4dy2             10.389228       1.867377
                                                         3.849621       0.670994
                                                         1.388401       1.353441
                                                         0.496955       0.273538
                                                         0.162492       0.006620
                          1       5    4dyz             10.389228       3.234392
                                                         3.849621       1.162195
                                                         1.388401       2.344229
                                                         0.496955       0.473781
                                                         0.162492       0.011466
                          1       5    4dz2             10.389228       1.867377
                                                         3.849621       0.670994
                                                         1.388401       1.353441
                                                         0.496955       0.273538
                                                         0.162492       0.006620

     GTH Potential information for                                    GTH-PBE-q6

       Description:                       Goedecker-Teter-Hutter pseudopotential
                                           Goedecker et al., PRB 54, 1703 (1996)
                                          Hartwigsen et al., PRB 58, 3641 (1998)
                                                      Krack, TCA 114, 145 (2005)

       Gaussian exponent of the core charge distribution:               8.360253
       Electronic configuration (s p d ...):                               2   4

       Parameters of the local part of the GTH pseudopotential:

                          rloc        C1          C2          C3          C4
                        0.244554  -16.667215    2.487311

       Parameters of the non-local part of the GTH pseudopotential:

                   l      r(l)      h(i,j,l)

                   0    0.220956   18.337458
                   1    0.211332

  2. Atomic kind: Ti                                    Number of atoms:      80

     Orbital Basis Set                                        DZVP-MOLOPT-SR-GTH

       Number of orbital shell sets:                                           1
       Number of orbital shells:                                               8
       Number of primitive Cartesian functions:                                6
       Number of Cartesian basis functions:                                   31
       Number of spherical basis functions:                                   26
       Norm type:                                                              2

       Normalised Cartesian orbitals:

                        Set   Shell   Orbital            Exponent    Coefficient

                          1       1    2s                7.884570       0.015554
                                                         3.894698       0.963603
                                                         1.513589      -0.631435
                                                         0.596768      -0.343022
                                                         0.222222      -0.006534
                                                         0.077078       0.007652

                          1       2    3s                7.884570      -0.009340
                                                         3.894698       0.212624
                                                         1.513589      -0.258368
                                                         0.596768      -0.226206
                                                         0.222222       0.039438
                                                         0.077078       0.107179

                          1       3    4s                7.884570       0.276563
                                                         3.894698       0.105452
                                                         1.513589       0.085149
                                                         0.596768       0.882541
                                                         0.222222      -0.696223
                                                         0.077078       0.156638

                          1       4    3px               7.884570      -2.034794
                                                         3.894698       0.782008
                                                         1.513589       1.253903
                                                         0.596768       0.347823
                                                         0.222222       0.016778
                                                         0.077078      -0.000433
                          1       4    3py               7.884570      -2.034794
                                                         3.894698       0.782008
                                                         1.513589       1.253903
                                                         0.596768       0.347823
                                                         0.222222       0.016778
                                                         0.077078      -0.000433
                          1       4    3pz               7.884570      -2.034794
                                                         3.894698       0.782008
                                                         1.513589       1.253903
                                                         0.596768       0.347823
                                                         0.222222       0.016778
                                                         0.077078      -0.000433

                          1       5    4px               7.884570       0.376572
                                                         3.894698      -0.182875
                                                         1.513589      -0.474776
                                                         0.596768      -0.081757
                                                         0.222222       0.064432
                                                         0.077078       0.047279
                          1       5    4py               7.884570       0.376572
                                                         3.894698      -0.182875
                                                         1.513589      -0.474776
                                                         0.596768      -0.081757
                                                         0.222222       0.064432
                                                         0.077078       0.047279
                          1       5    4pz               7.884570       0.376572
                                                         3.894698      -0.182875
                                                         1.513589      -0.474776
                                                         0.596768      -0.081757
                                                         0.222222       0.064432
                                                         0.077078       0.047279

                          1       6    4dx2              7.884570       3.047350
                                                         3.894698       3.289529
                                                         1.513589       1.060616
                                                         0.596768       0.249930
                                                         0.222222       0.038806
                                                         0.077078       0.002319
                          1       6    4dxy              7.884570       5.278165
                                                         3.894698       5.697631
                                                         1.513589       1.837041
                                                         0.596768       0.432892
                                                         0.222222       0.067214
                                                         0.077078       0.004017
                          1       6    4dxz              7.884570       5.278165
                                                         3.894698       5.697631
                                                         1.513589       1.837041
                                                         0.596768       0.432892
                                                         0.222222       0.067214
                                                         0.077078       0.004017
                          1       6    4dy2              7.884570       3.047350
                                                         3.894698       3.289529
                                                         1.513589       1.060616
                                                         0.596768       0.249930
                                                         0.222222       0.038806
                                                         0.077078       0.002319
                          1       6    4dyz              7.884570       5.278165
                                                         3.894698       5.697631
                                                         1.513589       1.837041
                                                         0.596768       0.432892
                                                         0.222222       0.067214
                                                         0.077078       0.004017
                          1       6    4dz2              7.884570       3.047350
                                                         3.894698       3.289529
                                                         1.513589       1.060616
                                                         0.596768       0.249930
                                                         0.222222       0.038806
                                                         0.077078       0.002319

                          1       7    5dx2              7.884570      -2.119015
                                                         3.894698      -1.237751
                                                         1.513589      -0.746777
                                                         0.596768      -0.071514
                                                         0.222222       0.004086
                                                         0.077078       0.017595
                          1       7    5dxy              7.884570      -3.670241
                                                         3.894698      -2.143848
                                                         1.513589      -1.293455
                                                         0.596768      -0.123865
                                                         0.222222       0.007077
                                                         0.077078       0.030475
                          1       7    5dxz              7.884570      -3.670241
                                                         3.894698      -2.143848
                                                         1.513589      -1.293455
                                                         0.596768      -0.123865
                                                         0.222222       0.007077
                                                         0.077078       0.030475
                          1       7    5dy2              7.884570      -2.119015
                                                         3.894698      -1.237751
                                                         1.513589      -0.746777
                                                         0.596768      -0.071514
                                                         0.222222       0.004086
                                                         0.077078       0.017595
                          1       7    5dyz              7.884570      -3.670241
                                                         3.894698      -2.143848
                                                         1.513589      -1.293455
                                                         0.596768      -0.123865
                                                         0.222222       0.007077
                                                         0.077078       0.030475
                          1       7    5dz2              7.884570      -2.119015
                                                         3.894698      -1.237751
                                                         1.513589      -0.746777
                                                         0.596768      -0.071514
                                                         0.222222       0.004086
                                                         0.077078       0.017595

                          1       8    5fx3              7.884570      -0.342058
                                                         3.894698       0.375798
                                                         1.513589      -0.706469
                                                         0.596768      -0.229994
                                                         0.222222      -0.012723
                                                         0.077078       0.003932
                          1       8    5fx2y             7.884570      -0.764866
                                                         3.894698       0.840310
                                                         1.513589      -1.579712
                                                         0.596768      -0.514282
                                                         0.222222      -0.028450
                                                         0.077078       0.008792
                          1       8    5fx2z             7.884570      -0.764866
                                                         3.894698       0.840310
                                                         1.513589      -1.579712
                                                         0.596768      -0.514282
                                                         0.222222      -0.028450
                                                         0.077078       0.008792
                          1       8    5fxy2             7.884570      -0.764866
                                                         3.894698       0.840310
                                                         1.513589      -1.579712
                                                         0.596768      -0.514282
                                                         0.222222      -0.028450
                                                         0.077078       0.008792
                          1       8    5fxyz             7.884570      -1.324787
                                                         3.894698       1.455460
                                                         1.513589      -2.736142
                                                         0.596768      -0.890763
                                                         0.222222      -0.049276
                                                         0.077078       0.015229
                          1       8    5fxz2             7.884570      -0.764866
                                                         3.894698       0.840310
                                                         1.513589      -1.579712
                                                         0.596768      -0.514282
                                                         0.222222      -0.028450
                                                         0.077078       0.008792
                          1       8    5fy3              7.884570      -0.342058
                                                         3.894698       0.375798
                                                         1.513589      -0.706469
                                                         0.596768      -0.229994
                                                         0.222222      -0.012723
                                                         0.077078       0.003932
                          1       8    5fy2z             7.884570      -0.764866
                                                         3.894698       0.840310
                                                         1.513589      -1.579712
                                                         0.596768      -0.514282
                                                         0.222222      -0.028450
                                                         0.077078       0.008792
                          1       8    5fyz2             7.884570      -0.764866
                                                         3.894698       0.840310
                                                         1.513589      -1.579712
                                                         0.596768      -0.514282
                                                         0.222222      -0.028450
                                                         0.077078       0.008792
                          1       8    5fz3              7.884570      -0.342058
                                                         3.894698       0.375798
                                                         1.513589      -0.706469
                                                         0.596768      -0.229994
                                                         0.222222      -0.012723
                                                         0.077078       0.003932

     GTH Potential information for                                   GTH-PBE-q12

       Description:                       Goedecker-Teter-Hutter pseudopotential
                                           Goedecker et al., PRB 54, 1703 (1996)
                                          Hartwigsen et al., PRB 58, 3641 (1998)
                                                      Krack, TCA 114, 145 (2005)

       Gaussian exponent of the core charge distribution:               3.462604
       Electronic configuration (s p d ...):                           4   6   2

       Parameters of the local part of the GTH pseudopotential:

                          rloc        C1          C2          C3          C4
                        0.380000    8.711442   -0.700287

       Parameters of the non-local part of the GTH pseudopotential:

                   l      r(l)      h(i,j,l)

                   0    0.337771    2.575264    3.692971
                                    3.692971   -4.767605
                   1    0.242531   -4.630541    8.870875
                                    8.870875  -10.496161
                   2    0.243317   -9.406653

  3. Atomic kind: H                                     Number of atoms:      32

     Orbital Basis Set                                        DZVP-MOLOPT-SR-GTH

       Number of orbital shell sets:                                           1
       Number of orbital shells:                                               3
       Number of primitive Cartesian functions:                                5
       Number of Cartesian basis functions:                                    5
       Number of spherical basis functions:                                    5
       Norm type:                                                              2

       Normalised Cartesian orbitals:

                        Set   Shell   Orbital            Exponent    Coefficient

                          1       1    2s               10.068468      -0.133023
                                                         2.680223      -0.177618
                                                         0.791502      -0.258419
                                                         0.239116      -0.107525
                                                         0.082193      -0.014019

                          1       2    3s               10.068468       0.344673
                                                         2.680223       1.819821
                                                         0.791502      -0.999069
                                                         0.239116       0.017430
                                                         0.082193       0.082660

                          1       3    3px              10.068468       0.155326
                                                         2.680223       0.367157
                                                         0.791502       0.311480
                                                         0.239116       0.080105
                                                         0.082193       0.033440
                          1       3    3py              10.068468       0.155326
                                                         2.680223       0.367157
                                                         0.791502       0.311480
                                                         0.239116       0.080105
                                                         0.082193       0.033440
                          1       3    3pz              10.068468       0.155326
                                                         2.680223       0.367157
                                                         0.791502       0.311480
                                                         0.239116       0.080105
                                                         0.082193       0.033440

     GTH Potential information for                                    GTH-PBE-q1

       Description:                       Goedecker-Teter-Hutter pseudopotential
                                           Goedecker et al., PRB 54, 1703 (1996)
                                          Hartwigsen et al., PRB 58, 3641 (1998)
                                                      Krack, TCA 114, 145 (2005)

       Gaussian exponent of the core charge distribution:              12.500000
       Electronic configuration (s p d ...):                                   1

       Parameters of the local part of the GTH pseudopotential:

                          rloc        C1          C2          C3          C4
                        0.200000   -4.178900    0.724463


 MOLECULE KIND INFORMATION


 All atoms are their own molecule, skipping detailed information


 TOTAL NUMBERS AND MAXIMUM NUMBERS

  Total number of            - Atomic kinds:                                   3
                             - Atoms:                                        288
                             - Shell sets:                                   288
                             - Shells:                                      1616
                             - Primitive Cartesian functions:               1520
                             - Cartesian basis functions:                   5104
                             - Spherical basis functions:                   4528

  Maximum angular momentum of- Orbital basis functions:                        3
                             - Local part of the GTH pseudopotential:          2
                             - Non-local part of the GTH pseudopotential:      3


 MODULE QUICKSTEP:  ATOMIC COORDINATES IN angstrom

  Atom  Kind  Element       X           Y           Z          Z(eff)       Mass

       1     1 O    8    0.087526   -0.003965   11.934122      6.00      15.9994
       2     1 O    8    6.407961    2.955043   11.934108      6.00      15.9994
       3     1 O    8    6.407961    8.873043   11.934108      6.00      15.9994
       4     1 O    8    6.582982   -0.003963   11.934116      6.00      15.9994
       5     1 O    8    6.582982    5.914037   11.934116      6.00      15.9994
       6     1 O    8    0.087526    5.914035   11.934122      6.00      15.9994
       7     1 O    8   -0.087492    2.955043   11.934116      6.00      15.9994
       8     1 O    8   -0.087492    8.873043   11.934116      6.00      15.9994
       9     2 Ti  22    3.246439    2.955055   13.343012     12.00      47.8670
      10     1 O    8    4.481748    4.447612   13.128265      6.00      15.9994
      11     1 O    8    2.006723    4.364178   13.133914      6.00      15.9994
      12     1 O    8    8.509325    1.488595   13.128311      6.00      15.9994
      13     1 O    8   10.984405    1.405180   13.133919      6.00      15.9994
      14     1 O    8    8.502174   10.282177   13.133936      6.00      15.9994
      15     1 O    8   10.977198   10.365612   13.128279      6.00      15.9994
      16     1 O    8    2.006723   10.282178   13.133914      6.00      15.9994
      17     2 Ti  22    9.741884    8.873054   13.342977     12.00      47.8670
      18     2 Ti  22    6.494993   10.356632   13.068292     12.00      47.8670
      19     1 O    8    8.509325    7.406595   13.128311      6.00      15.9994
      20     2 Ti  22    3.246439    8.873055   13.343012     12.00      47.8670
      21     2 Ti  22   -0.000458    4.438631   13.068299     12.00      47.8670
      22     2 Ti  22    0.000565    7.397641   13.068298     12.00      47.8670
      23     2 Ti  22    3.249153    5.914060   13.343027     12.00      47.8670
      24     1 O    8    4.488955    7.323182   13.133896      6.00      15.9994
      25     1 O    8    2.013875    7.406595   13.128296      6.00      15.9994
      26     2 Ti  22   -0.000458   10.356631   13.068299     12.00      47.8670
      27     2 Ti  22    6.496017    7.397640   13.068296     12.00      47.8670
      28     2 Ti  22    9.744608    5.914059   13.342991     12.00      47.8670
      29     1 O    8   10.984405    7.323180   13.133919      6.00      15.9994
      30     2 Ti  22    6.496017    1.479640   13.068296     12.00      47.8670
      31     1 O    8    4.481748   10.365612   13.128265      6.00      15.9994
      32     2 Ti  22    9.744608   -0.003941   13.342991     12.00      47.8670
      33     2 Ti  22    6.494993    4.438632   13.068292     12.00      47.8670
      34     1 O    8   10.977198    4.447612   13.128279      6.00      15.9994
      35     2 Ti  22    0.000565    1.479641   13.068298     12.00      47.8670
      36     2 Ti  22    9.741884    2.955054   13.342977     12.00      47.8670
      37     2 Ti  22    3.249153   -0.003940   13.343027     12.00      47.8670
      38     1 O    8    4.488955    1.405182   13.133896      6.00      15.9994
      39     1 O    8    2.013875    1.488595   13.128296      6.00      15.9994
      40     1 O    8    8.502174    4.364177   13.133936      6.00      15.9994
      41     1 O    8    6.495059    8.873568   14.496119      6.00      15.9994
      42     1 O    8    6.495993   -0.003436   14.496119      6.00      15.9994
      43     1 O    8    6.495059    2.955568   14.496119      6.00      15.9994
      44     1 O    8    0.000540   -0.003435   14.496119      6.00      15.9994
      45     1 O    8    6.495993    5.914564   14.496119      6.00      15.9994
      46     1 O    8   -0.000392    8.873567   14.496120      6.00      15.9994
      47     1 O    8   -0.000392    2.955567   14.496120      6.00      15.9994
      48     1 O    8    0.000540    5.914565   14.496119      6.00      15.9994
      49     1 O    8    9.747968    8.874123   15.200636      6.00      15.9994
      50     1 O    8    9.738638   -0.002872   15.200655      6.00      15.9994
      51     1 O    8    9.747968    2.956123   15.200636      6.00      15.9994
      52     1 O    8    3.243187    5.915128   15.200665      6.00      15.9994
      53     1 O    8    3.243187   -0.002872   15.200665      6.00      15.9994
      54     1 O    8    3.252518    2.956123   15.200645      6.00      15.9994
      55     1 O    8    3.252518    8.874123   15.200645      6.00      15.9994
      56     1 O    8    9.738638    5.915128   15.200655      6.00      15.9994
      57     2 Ti  22    3.247525    1.480804   16.544209     12.00      47.8670
      58     2 Ti  22   -0.001298    0.001776   16.395100     12.00      47.8670
      59     1 O    8    1.293289    1.479281   16.480880      6.00      15.9994
      60     1 O    8   11.698281   10.356280   16.481134      6.00      15.9994
      61     1 O    8   11.698281    4.438280   16.481134      6.00      15.9994
      62     1 O    8    5.202859    1.478577   16.481180      6.00      15.9994
      63     2 Ti  22    6.494153    5.919776   16.395107     12.00      47.8670
      64     1 O    8    7.788738    7.397281   16.480884      6.00      15.9994
      65     1 O    8   11.698310    7.396576   16.481200      6.00      15.9994
      66     1 O    8    5.202830   10.356280   16.481117      6.00      15.9994
      67     1 O    8    1.293264   10.355582   16.480942      6.00      15.9994
      68     2 Ti  22    0.001030    8.878777   16.395104     12.00      47.8670
      69     2 Ti  22    9.742974    7.398801   16.544225     12.00      47.8670
      70     1 O    8    5.202859    7.396577   16.481180      6.00      15.9994
      71     1 O    8    7.788713    4.437582   16.480946      6.00      15.9994
      72     2 Ti  22   -0.001298    5.919776   16.395100     12.00      47.8670
      73     1 O    8    7.788738    1.479281   16.480884      6.00      15.9994
      74     2 Ti  22    3.247296    4.439785   16.544207     12.00      47.8670
      75     2 Ti  22    0.001030    2.960777   16.395104     12.00      47.8670
      76     1 O    8    1.293264    4.437582   16.480942      6.00      15.9994
      77     1 O    8    5.202830    4.438280   16.481117      6.00      15.9994
      78     2 Ti  22    6.494153    0.001776   16.395107     12.00      47.8670
      79     2 Ti  22    9.742974    1.480801   16.544225     12.00      47.8670
      80     1 O    8    1.293289    7.397281   16.480880      6.00      15.9994
      81     1 O    8   11.698310    1.478576   16.481200      6.00      15.9994
      82     2 Ti  22    3.247296   10.357785   16.544207     12.00      47.8670
      83     2 Ti  22    9.742745   10.357786   16.544222     12.00      47.8670
      84     2 Ti  22    9.742745    4.439786   16.544222     12.00      47.8670
      85     2 Ti  22    6.496480    2.960778   16.395107     12.00      47.8670
      86     1 O    8    7.788713   10.355582   16.480946      6.00      15.9994
      87     2 Ti  22    3.247525    7.398804   16.544209     12.00      47.8670
      88     2 Ti  22    6.496480    8.878778   16.395107     12.00      47.8670
      89     1 O    8    9.744304   -0.000342   17.754231      6.00      15.9994
      90     1 O    8    9.744074    2.958660   17.754251      6.00      15.9994
      91     1 O    8    3.248615    2.958661   17.754221      6.00      15.9994
      92     1 O    8    9.744304    5.917658   17.754231      6.00      15.9994
      93     1 O    8    3.248826   -0.000341   17.754193      6.00      15.9994
      94     1 O    8    9.744074    8.876660   17.754251      6.00      15.9994
      95     1 O    8    3.248826    5.917659   17.754193      6.00      15.9994
      96     1 O    8    3.248615    8.876661   17.754221      6.00      15.9994
      97     1 O    8    6.499881   -0.000231   18.469523      6.00      15.9994
      98     1 O    8    0.004474    8.876771   18.469502      6.00      15.9994
      99     1 O    8    6.499943    2.958770   18.469509      6.00      15.9994
     100     1 O    8    0.004409   -0.000230   18.469515      6.00      15.9994
     101     1 O    8    0.004409    5.917770   18.469515      6.00      15.9994
     102     1 O    8    0.004474    2.958771   18.469502      6.00      15.9994
     103     1 O    8    6.499943    8.876770   18.469509      6.00      15.9994
     104     1 O    8    6.499881    5.917769   18.469523      6.00      15.9994
     105     2 Ti  22    6.508398    7.398620   19.747259     12.00      47.8670
     106     2 Ti  22    3.266336    2.959513   19.747111     12.00      47.8670
     107     2 Ti  22    0.012931    4.439613   19.747248     12.00      47.8670
     108     2 Ti  22    9.761791    8.877513   19.747152     12.00      47.8670
     109     2 Ti  22    6.508398    1.480620   19.747259     12.00      47.8670
     110     2 Ti  22    9.761627    0.000514   19.747145     12.00      47.8670
     111     2 Ti  22    9.761791    2.959513   19.747152     12.00      47.8670
     112     2 Ti  22    6.508379    4.439612   19.747259     12.00      47.8670
     113     2 Ti  22    3.266171    0.000513   19.747096     12.00      47.8670
     114     2 Ti  22    0.012950    1.480621   19.747248     12.00      47.8670
     115     2 Ti  22    0.012950    7.398621   19.747248     12.00      47.8670
     116     2 Ti  22    3.266171    5.918513   19.747096     12.00      47.8670
     117     2 Ti  22    6.508379   10.357612   19.747259     12.00      47.8670
     118     2 Ti  22    0.012931   10.357613   19.747248     12.00      47.8670
     119     2 Ti  22    9.761627    5.918514   19.747145     12.00      47.8670
     120     2 Ti  22    3.266336    8.877513   19.747111     12.00      47.8670
     121     1 O    8    2.023310    7.397344   19.747304      6.00      15.9994
     122     1 O    8    8.518769   10.356397   19.747216      6.00      15.9994
     123     1 O    8   11.023432    4.438312   19.747241      6.00      15.9994
     124     1 O    8    8.518769    4.438397   19.747216      6.00      15.9994
     125     1 O    8    2.023310    1.479344   19.747304      6.00      15.9994
     126     1 O    8    4.527982    7.397364   19.747276      6.00      15.9994
     127     1 O    8    8.518767    1.479344   19.747217      6.00      15.9994
     128     1 O    8   11.023434    1.479364   19.747241      6.00      15.9994
     129     1 O    8    2.023312   10.356397   19.747303      6.00      15.9994
     130     1 O    8   11.023432   10.356312   19.747241      6.00      15.9994
     131     1 O    8    4.527980   10.356313   19.747276      6.00      15.9994
     132     1 O    8    4.527982    1.479364   19.747276      6.00      15.9994
     133     1 O    8    8.518767    7.397344   19.747217      6.00      15.9994
     134     1 O    8   11.023434    7.397364   19.747241      6.00      15.9994
     135     1 O    8    4.527980    4.438313   19.747276      6.00      15.9994
     136     1 O    8    2.023312    4.438397   19.747303      6.00      15.9994
     137     1 O    8    6.500005    8.876769   21.024875      6.00      15.9994
     138     1 O    8    6.499878    5.917769   21.024860      6.00      15.9994
     139     1 O    8    0.004403    5.917769   21.024851      6.00      15.9994
     140     1 O    8    6.499878   -0.000231   21.024860      6.00      15.9994
     141     1 O    8    0.004519    8.876770   21.024864      6.00      15.9994
     142     1 O    8    0.004403   -0.000231   21.024851      6.00      15.9994
     143     1 O    8    6.500005    2.958769   21.024875      6.00      15.9994
     144     1 O    8    0.004519    2.958770   21.024864      6.00      15.9994
     145     1 O    8    3.248964    5.917660   21.740210      6.00      15.9994
     146     1 O    8    3.248594    8.876662   21.740205      6.00      15.9994
     147     1 O    8    9.744047    2.958662   21.740230      6.00      15.9994
     148     1 O    8    9.744394   -0.000340   21.740238      6.00      15.9994
     149     1 O    8    9.744047    8.876662   21.740230      6.00      15.9994
     150     1 O    8    9.744394    5.917660   21.740238      6.00      15.9994
     151     1 O    8    3.248594    2.958662   21.740205      6.00      15.9994
     152     1 O    8    3.248964   -0.000340   21.740210      6.00      15.9994
     153     1 O    8   11.698289    4.438276   23.013230      6.00      15.9994
     154     2 Ti  22    9.742746    4.439795   22.950118     12.00      47.8670
     155     2 Ti  22    6.496413    2.960795   23.099463     12.00      47.8670
     156     1 O    8    7.788700    4.437586   23.013374      6.00      15.9994
     157     2 Ti  22    9.742968    7.398802   22.950115     12.00      47.8670
     158     1 O    8    7.788723    7.397279   23.013447      6.00      15.9994
     159     1 O    8   11.698289   10.356276   23.013230      6.00      15.9994
     160     1 O    8   11.698315    7.396581   23.013156      6.00      15.9994
     161     2 Ti  22    9.742746   10.357795   22.950118     12.00      47.8670
     162     2 Ti  22    6.494203    5.919794   23.099459     12.00      47.8670
     163     1 O    8    7.788700   10.355586   23.013374      6.00      15.9994
     164     2 Ti  22    6.496413    8.878795   23.099463     12.00      47.8670
     165     2 Ti  22    0.000970    2.960794   23.099455     12.00      47.8670
     166     2 Ti  22    3.247298   10.357795   22.950104     12.00      47.8670
     167     2 Ti  22    0.000970    8.878794   23.099455     12.00      47.8670
     168     1 O    8    1.293249   10.355585   23.013379      6.00      15.9994
     169     1 O    8    5.202842   10.356277   23.013246      6.00      15.9994
     170     2 Ti  22    3.247298    4.439795   22.950104     12.00      47.8670
     171     1 O    8    5.202868    7.396581   23.013172      6.00      15.9994
     172     1 O    8    1.293272    7.397278   23.013452      6.00      15.9994
     173     1 O    8    1.293249    4.437585   23.013379      6.00      15.9994
     174     2 Ti  22    3.247520    7.398799   22.950101     12.00      47.8670
     175     1 O    8    5.202868    1.478580   23.013172      6.00      15.9994
     176     2 Ti  22   -0.001240    5.919794   23.099452     12.00      47.8670
     177     1 O    8    5.202842    4.438277   23.013246      6.00      15.9994
     178     2 Ti  22    3.247520    1.480799   22.950101     12.00      47.8670
     179     2 Ti  22    9.742968    1.480802   22.950115     12.00      47.8670
     180     2 Ti  22    6.494203    0.001794   23.099459     12.00      47.8670
     181     1 O    8    7.788723    1.479279   23.013447      6.00      15.9994
     182     2 Ti  22   -0.001240    0.001794   23.099452     12.00      47.8670
     183     1 O    8    1.293272    1.479278   23.013452      6.00      15.9994
     184     1 O    8   11.698315    1.478581   23.013156      6.00      15.9994
     185     1 O    8    9.738548   -0.002872   24.293756      6.00      15.9994
     186     1 O    8    9.738548    5.915128   24.293756      6.00      15.9994
     187     1 O    8    3.252621    2.956124   24.293779      6.00      15.9994
     188     1 O    8    3.252621    8.874124   24.293779      6.00      15.9994
     189     1 O    8    9.748067    2.956123   24.293771      6.00      15.9994
     190     1 O    8    3.243097    5.915128   24.293766      6.00      15.9994
     191     1 O    8    9.748067    8.874123   24.293771      6.00      15.9994
     192     1 O    8    3.243097   -0.002872   24.293766      6.00      15.9994
     193     1 O    8   -0.000409    2.955552   24.998326      6.00      15.9994
     194     1 O    8    6.495991    5.914548   24.998322      6.00      15.9994
     195     1 O    8    0.000547    5.914547   24.998323      6.00      15.9994
     196     1 O    8    6.495031    8.873551   24.998328      6.00      15.9994
     197     1 O    8    0.000547   -0.003453   24.998323      6.00      15.9994
     198     1 O    8    6.495031    2.955551   24.998328      6.00      15.9994
     199     1 O    8    6.495991   -0.003452   24.998322      6.00      15.9994
     200     1 O    8   -0.000409    8.873552   24.998326      6.00      15.9994
     201     2 Ti  22    3.246586    2.955001   26.151396     12.00      47.8670
     202     1 O    8   10.977126   10.365594   26.366114      6.00      15.9994
     203     1 O    8    4.489085    1.405090   26.360487      6.00      15.9994
     204     2 Ti  22    3.249008   -0.003995   26.151379     12.00      47.8670
     205     2 Ti  22    6.495917    1.479734   26.426178     12.00      47.8670
     206     2 Ti  22    6.495105    4.438733   26.426179     12.00      47.8670
     207     1 O    8    4.481686    4.447594   26.366135      6.00      15.9994
     208     2 Ti  22    6.495105   10.356733   26.426179     12.00      47.8670
     209     1 O    8    4.481686   10.365595   26.366135      6.00      15.9994
     210     1 O    8   10.984525    1.405083   26.360479      6.00      15.9994
     211     2 Ti  22    9.744449    5.914000   26.151345     12.00      47.8670
     212     2 Ti  22   12.991358    7.397738   26.426181     12.00      47.8670
     213     2 Ti  22    9.742044    8.872995   26.151361     12.00      47.8670
     214     2 Ti  22    6.495917    7.397734   26.426178     12.00      47.8670
     215     2 Ti  22    3.249009    5.914005   26.151379     12.00      47.8670
     216     1 O    8    4.489085    7.323090   26.360487      6.00      15.9994
     217     2 Ti  22    9.744449   -0.004000   26.151345     12.00      47.8670
     218     2 Ti  22   12.990545   10.356730   26.426184     12.00      47.8670
     219     2 Ti  22    3.246586    8.873001   26.151396     12.00      47.8670
     220     1 O    8   10.984525    7.323083   26.360479      6.00      15.9994
     221     2 Ti  22   12.991358    1.479738   26.426181     12.00      47.8670
     222     2 Ti  22   12.990546    4.438730   26.426184     12.00      47.8670
     223     2 Ti  22    9.742043    2.954995   26.151361     12.00      47.8670
     224     1 O    8   10.977126    4.447594   26.366114      6.00      15.9994
     225     1 O    8    8.509393    7.406577   26.366084      6.00      15.9994
     226     1 O    8    8.502050   10.282078   26.360460      6.00      15.9994
     227     1 O    8    2.006593   10.282086   26.360467      6.00      15.9994
     228     1 O    8    2.013935    1.488577   26.366105      6.00      15.9994
     229     1 O    8    2.013935    7.406577   26.366105      6.00      15.9994
     230     1 O    8    2.006593    4.364086   26.360467      6.00      15.9994
     231     1 O    8    8.502050    4.364078   26.360460      6.00      15.9994
     232     1 O    8    8.509393    1.488577   26.366084      6.00      15.9994
     233     1 O    8   -0.087413    8.873044   27.560335      6.00      15.9994
     234     1 O    8    6.408019    2.955045   27.560323      6.00      15.9994
     235     1 O    8    6.582910   -0.003963   27.560322      6.00      15.9994
     236     1 O    8    0.087475    5.914039   27.560329      6.00      15.9994
     237     1 O    8   -0.087413    2.955044   27.560335      6.00      15.9994
     238     1 O    8    0.087475   -0.003961   27.560329      6.00      15.9994
     239     1 O    8    6.582910    5.914037   27.560322      6.00      15.9994
     240     1 O    8    6.408019    8.873045   27.560323      6.00      15.9994
     241     1 O    8    2.838734   -0.000089   28.500552      6.00      15.9994
     242     3 H    1    1.847769   -0.018824   28.427570      1.00       1.0079
     243     3 H    1    3.085422   -0.895776   28.818609      1.00       1.0079
     244     1 O    8    9.334182    5.917906   28.500512      6.00      15.9994
     245     3 H    1    8.343219    5.899199   28.427629      1.00       1.0079
     246     3 H    1    9.580874    5.022221   28.818665      1.00       1.0079
     247     1 O    8    2.838734    5.917911   28.500552      6.00      15.9994
     248     3 H    1    1.847769    5.899176   28.427570      1.00       1.0079
     249     3 H    1    3.085422    5.022224   28.818609      1.00       1.0079
     250     1 O    8    9.334182   -0.000094   28.500512      6.00      15.9994
     251     3 H    1    8.343219   -0.018801   28.427629      1.00       1.0079
     252     3 H    1    9.580874   -0.895779   28.818665      1.00       1.0079
     253     1 O    8    3.656734    2.958902   28.500545      6.00      15.9994
     254     3 H    1    3.410037    2.063196   28.818562      1.00       1.0079
     255     3 H    1    4.647699    2.940181   28.427603      1.00       1.0079
     256     1 O    8   10.152186    8.876898   28.500504      6.00      15.9994
     257     3 H    1    9.905491    7.981195   28.818623      1.00       1.0079
     258     3 H    1   11.143151    8.858208   28.427660      1.00       1.0079
     259     1 O    8    3.656734    8.876902   28.500545      6.00      15.9994
     260     3 H    1    3.410037    7.981196   28.818562      1.00       1.0079
     261     3 H    1    4.647699    8.858181   28.427603      1.00       1.0079
     262     1 O    8   10.152186    2.958898   28.500504      6.00      15.9994
     263     3 H    1    9.905491    2.063195   28.818623      1.00       1.0079
     264     3 H    1   11.143151    2.940208   28.427659      1.00       1.0079
     265     1 O    8    2.838715   -0.000058   10.993821      6.00      15.9994
     266     3 H    1    1.847738   -0.018427   11.066661      1.00       1.0079
     267     3 H    1    3.085141   -0.895673   10.675376      1.00       1.0079
     268     1 O    8    2.838715    5.917942   10.993821      6.00      15.9994
     269     3 H    1    1.847738    5.899574   11.066661      1.00       1.0079
     270     3 H    1    3.085141    5.022327   10.675376      1.00       1.0079
     271     1 O    8    9.334158   -0.000072   10.993765      6.00      15.9994
     272     3 H    1    8.343184   -0.018440   11.066668      1.00       1.0079
     273     3 H    1    9.580601   -0.895668   10.675424      1.00       1.0079
     274     1 O    8    9.334158    5.917928   10.993765      6.00      15.9994
     275     3 H    1    8.343184    5.899560   11.066668      1.00       1.0079
     276     3 H    1    9.580601    5.022333   10.675424      1.00       1.0079
     277     1 O    8    3.656751    2.958938   10.993837      6.00      15.9994
     278     3 H    1    3.410326    2.063305   10.675418      1.00       1.0079
     279     3 H    1    4.647730    2.940577   11.066635      1.00       1.0079
     280     1 O    8    3.656751    8.876938   10.993837      6.00      15.9994
     281     3 H    1    3.410326    7.981305   10.675418      1.00       1.0079
     282     3 H    1    4.647730    8.858577   11.066635      1.00       1.0079
     283     1 O    8   10.152209    2.958923   10.993779      6.00      15.9994
     284     3 H    1    9.905771    2.063311   10.675461      1.00       1.0079
     285     3 H    1   11.143185    2.940571   11.066641      1.00       1.0079
     286     1 O    8   10.152209    8.876923   10.993779      6.00      15.9994
     287     3 H    1    9.905771    7.981311   10.675461      1.00       1.0079
     288     3 H    1   11.143185    8.858571   11.066641      1.00       1.0079




 SCF PARAMETERS         Density guess:                                   RESTART
                        --------------------------------------------------------
                        max_scf:                                              50
                        max_scf_history:                                       0
                        max_diis:                                              4
                        --------------------------------------------------------
                        eps_scf:                                        1.00E-06
                        eps_scf_history:                                0.00E+00
                        eps_diis:                                       1.00E-01
                        eps_eigval:                                     1.00E-05
                        --------------------------------------------------------
                        level_shift [a.u.]:                                 0.00
                        --------------------------------------------------------
                        Outer loop SCF in use 
                        No variables optimised in outer loop
                        eps_scf                                         1.00E-06
                        max_scf                                               10
                        No outer loop optimization
                        step_size                                       5.00E-01

 PW_GRID| Information for grid number                                          1
 PW_GRID| Grid distributed over                                    72 processors
 PW_GRID| Real space group dimensions                                    72    1
 PW_GRID| the grid is blocked:                                                NO
 PW_GRID| Cutoff [a.u.]                                                    250.0
 PW_GRID| spherical cutoff:                                                   NO
 PW_GRID|   Bounds   1            -90      89                Points:         180
 PW_GRID|   Bounds   2            -80      79                Points:         160
 PW_GRID|   Bounds   3           -312     312                Points:         625
 PW_GRID| Volume element (a.u.^3)  0.2590E-02     Volume (a.u.^3)     46622.5507
 PW_GRID| Grid span                                                    FULLSPACE
 PW_GRID|   Distribution                         Average         Max         Min
 PW_GRID|   G-Vectors                           250000.0      250020      249840
 PW_GRID|   G-Rays                                1388.9        1389        1388
 PW_GRID|   Real Space Points                   250000.0      300000      200000

 PW_GRID| Information for grid number                                          2
 PW_GRID| Number of the reference grid                                         1
 PW_GRID| Grid distributed over                                    72 processors
 PW_GRID| Real space group dimensions                                    72    1
 PW_GRID| the grid is blocked:                                                NO
 PW_GRID| Cutoff [a.u.]                                                     83.3
 PW_GRID| spherical cutoff:                                                   NO
 PW_GRID|   Bounds   1            -54      53                Points:         108
 PW_GRID|   Bounds   2            -48      47                Points:          96
 PW_GRID|   Bounds   3           -180     179                Points:         360
 PW_GRID| Volume element (a.u.^3)  0.1249E-01     Volume (a.u.^3)     46622.5507
 PW_GRID| Grid span                                                    FULLSPACE
 PW_GRID|   Distribution                         Average         Max         Min
 PW_GRID|   G-Vectors                            51840.0       53244       50544
 PW_GRID|   G-Rays                                 480.0         493         468
 PW_GRID|   Real Space Points                    51840.0       69120       34560

 PW_GRID| Information for grid number                                          3
 PW_GRID| Number of the reference grid                                         1
 PW_GRID| Grid distributed over                                    72 processors
 PW_GRID| Real space group dimensions                                     6   12
 PW_GRID| the grid is blocked:                                                NO
 PW_GRID| Cutoff [a.u.]                                                     27.8
 PW_GRID| spherical cutoff:                                                   NO
 PW_GRID|   Bounds   1            -30      29                Points:          60
 PW_GRID|   Bounds   2            -27      26                Points:          54
 PW_GRID|   Bounds   3           -108     107                Points:         216
 PW_GRID| Volume element (a.u.^3)  0.6662E-01     Volume (a.u.^3)     46622.5507
 PW_GRID| Grid span                                                    FULLSPACE
 PW_GRID|   Distribution                         Average         Max         Min
 PW_GRID|   G-Vectors                             9720.0       10860        8580
 PW_GRID|   G-Rays                                 162.0         181         143
 PW_GRID|   Real Space Points                     9720.0       10800        8640

 PW_GRID| Information for grid number                                          4
 PW_GRID| Number of the reference grid                                         1
 PW_GRID| Grid distributed over                                    72 processors
 PW_GRID| Real space group dimensions                                     6   12
 PW_GRID| the grid is blocked:                                                NO
 PW_GRID| Cutoff [a.u.]                                                      9.3
 PW_GRID| spherical cutoff:                                                   NO
 PW_GRID|   Bounds   1            -18      17                Points:          36
 PW_GRID|   Bounds   2            -16      15                Points:          32
 PW_GRID|   Bounds   3            -60      59                Points:         120
 PW_GRID| Volume element (a.u.^3)  0.3373         Volume (a.u.^3)     46622.5507
 PW_GRID| Grid span                                                    FULLSPACE
 PW_GRID|   Distribution                         Average         Max         Min
 PW_GRID|   G-Vectors                             1920.0        2196        1548
 PW_GRID|   G-Rays                                  53.3          61          43
 PW_GRID|   Real Space Points                     1920.0        2160        1440

 PW_GRID| Information for grid number                                          5
 PW_GRID| Number of the reference grid                                         1
 PW_GRID| Grid distributed over                                    72 processors
 PW_GRID| Real space group dimensions                                     6   12
 PW_GRID| the grid is blocked:                                                NO
 PW_GRID| Cutoff [a.u.]                                                      3.1
 PW_GRID| spherical cutoff:                                                   NO
 PW_GRID|   Bounds   1            -10       9                Points:          20
 PW_GRID|   Bounds   2             -9       8                Points:          18
 PW_GRID|   Bounds   3            -36      35                Points:          72
 PW_GRID| Volume element (a.u.^3)   1.799         Volume (a.u.^3)     46622.5507
 PW_GRID| Grid span                                                    FULLSPACE
 PW_GRID|   Distribution                         Average         Max         Min
 PW_GRID|   G-Vectors                              360.0         480         260
 PW_GRID|   G-Rays                                  18.0          24          13
 PW_GRID|   Real Space Points                      360.0         576         216

 POISSON| Solver                                                        PERIODIC
 POISSON| Periodicity                                                        XYZ

 RS_GRID| Information for grid number                                          1
 RS_GRID|   Bounds   1            -90      89                Points:         180
 RS_GRID|   Bounds   2            -80      79                Points:         160
 RS_GRID|   Bounds   3           -312     312                Points:         625
 RS_GRID| Real space distribution over                                  4 groups
 RS_GRID| Real space distribution along direction                              1
 RS_GRID| Border size                                                         29
 RS_GRID| Real space distribution over                                 18 groups
 RS_GRID| Real space distribution along direction                              3
 RS_GRID| Border size                                                         29
 RS_GRID|   Distribution                         Average         Max         Min
 RS_GRID|   Planes                                 103.0         103         103
 RS_GRID|   Distribution                         Average         Max         Min
 RS_GRID|   Planes                                  92.7          93          92

 RS_GRID| Information for grid number                                          2
 RS_GRID|   Bounds   1            -54      53                Points:         108
 RS_GRID|   Bounds   2            -48      47                Points:          96
 RS_GRID|   Bounds   3           -180     179                Points:         360
 RS_GRID| Real space distribution over                                  4 groups
 RS_GRID| Real space distribution along direction                              1
 RS_GRID| Border size                                                         30
 RS_GRID| Real space distribution over                                 18 groups
 RS_GRID| Real space distribution along direction                              3
 RS_GRID| Border size                                                         30
 RS_GRID|   Distribution                         Average         Max         Min
 RS_GRID|   Planes                                  87.0          87          87
 RS_GRID|   Distribution                         Average         Max         Min
 RS_GRID|   Planes                                  80.0          80          80

 RS_GRID| Information for grid number                                          3
 RS_GRID|   Bounds   1            -30      29                Points:          60
 RS_GRID|   Bounds   2            -27      26                Points:          54
 RS_GRID|   Bounds   3           -108     107                Points:         216
 RS_GRID| Real space fully replicated
 RS_GRID| Group size                                                           1

 RS_GRID| Information for grid number                                          4
 RS_GRID|   Bounds   1            -18      17                Points:          36
 RS_GRID|   Bounds   2            -16      15                Points:          32
 RS_GRID|   Bounds   3            -60      59                Points:         120
 RS_GRID| Real space fully replicated
 RS_GRID| Group size                                                           1

 RS_GRID| Information for grid number                                          5
 RS_GRID|   Bounds   1            -10       9                Points:          20
 RS_GRID|   Bounds   2             -9       8                Points:          18
 RS_GRID|   Bounds   3            -36      35                Points:          72
 RS_GRID| Real space fully replicated
 RS_GRID| Group size                                                           1

 BFGS| Use rational function optimization for step estimation:                NO
 BFGS| Use model Hessian for initial guess:                                  YES
 BFGS| Restart Hessian:                                                       NO
 BFGS| Trust radius:                                                       0.472

 *******************************************************************************
 ***                     STARTING GEOMETRY OPTIMIZATION                      ***
 ***                                   BFGS                                  ***
 *******************************************************************************

 Number of electrons:                                                       2048
 Number of occupied orbitals:                                               1024
 Number of molecular orbitals:                                              1024

 Number of orbital functions:                                               4528
 Number of independent orbital functions:                                   4528

 Extrapolation method: initial_guess

 *** WARNING in qs_initial_guess.F:280 :: User requested to restart the    ***
 *** wavefunction from the file named: DPGEN-RESTART.wfn. This file does   ***
 *** not exist. Please check the existence of the file or change properly  ***
 *** the value of the keyword WFN_RESTART_FILE_NAME. Calculation continues ***
 *** using ATOMIC GUESS.                                                   ***


 Atomic guess: The first density matrix is obtained in terms of atomic orbitals
               and electronic configurations assigned to each atomic kind

 Guess for atomic kind: O

 Electronic structure
[...]
 flops    26 x     5 x    64          25449948160       0.0%    100.0%      0.0%
 flops     5 x    26 x    64          25496673280       0.0%    100.0%      0.0%
 flops     5 x    13 x    96          65825111040       0.0%    100.0%      0.0%
 flops    13 x     5 x    96          65965286400       0.0%    100.0%      0.0%
 flops    26 x    32 x    32          71974256640       0.0%    100.0%      0.0%
 flops    26 x     5 x    96          76349844480       0.0%    100.0%      0.0%
 flops     5 x    26 x    96          76490019840       0.0%    100.0%      0.0%
 flops    13 x    32 x    32          79171682304       0.0%    100.0%      0.0%
 flops   192 x    64 x   353          88280137728       0.0%    100.0%      0.0%
 flops   748 x    64 x   353          91388796928       0.0%    100.0%      0.0%
 flops   192 x    64 x    64          97895055360       0.0%    100.0%      0.0%
 flops   160 x    64 x   353         147133562880       0.0%    100.0%      0.0%
 flops   160 x    64 x    64         163158425600       0.0%    100.0%      0.0%
 flops   758 x    64 x   353         185221144576       0.0%    100.0%      0.0%
 flops   192 x    64 x   387         193566081024       0.0%    100.0%      0.0%
 flops   748 x    64 x   387         200382234624       0.0%    100.0%      0.0%
 flops   192 x    96 x   353         264840413184       0.0%    100.0%      0.0%
 flops   192 x    64 x   361         270842462208       0.0%    100.0%      0.0%
 flops   748 x    96 x   353         274166390784       0.0%    100.0%      0.0%
 flops   748 x    64 x   361         280379793408       0.0%    100.0%      0.0%
 flops   192 x    96 x    64         293685166080       0.0%    100.0%      0.0%
 flops   192 x    64 x    96         293685166080       0.0%    100.0%      0.0%
 flops   748 x    64 x    64         309420097536       0.0%    100.0%      0.0%
 flops   160 x    64 x   387         322610135040       0.0%    100.0%      0.0%
 flops     5 x    32 x    13         354503884800       0.0%    100.0%      0.0%
 flops    13 x    32 x     5         354503884800       0.0%    100.0%      0.0%
 flops    13 x    13 x    64         372568109056       0.0%    100.0%      0.0%
 flops   758 x    64 x   387         406122283008       0.0%    100.0%      0.0%
 flops    26 x    26 x    64         411554856960       0.0%    100.0%      0.0%
 flops    13 x    26 x    64         413936453632       0.0%    100.0%      0.0%
 flops    26 x    13 x    64         414011906048       0.0%    100.0%      0.0%
 flops     5 x    32 x    26         417634713600       0.0%    100.0%      0.0%
 flops    26 x    32 x     5         417634713600       0.0%    100.0%      0.0%
 flops   160 x    96 x   353         441400688640       0.0%    100.0%      0.0%
 flops   160 x    64 x   361         451404103680       0.0%    100.0%      0.0%
 flops   160 x    64 x    96         489475276800       0.0%    100.0%      0.0%
 flops   160 x    96 x    64         489475276800       0.0%    100.0%      0.0%
 flops   758 x    96 x   353         555663433728       0.0%    100.0%      0.0%
 flops   758 x    64 x   361         568256372736       0.0%    100.0%      0.0%
 flops   192 x    96 x   387         580698243072       0.0%    100.0%      0.0%
 flops   748 x    96 x   387         601146703872       0.0%    100.0%      0.0%
 flops   758 x    64 x    64         627113459712       0.0%    100.0%      0.0%
 flops   192 x    96 x   361         812527386624       0.0%    100.0%      0.0%
 flops   748 x    96 x   361         841139380224       0.0%    100.0%      0.0%
 flops   192 x    96 x    96         881055498240       0.0%    100.0%      0.0%
 flops   748 x    64 x    96         928260292608       0.0%    100.0%      0.0%
 flops   748 x    96 x    64         928260292608       0.0%    100.0%      0.0%
 flops   160 x    96 x   387         967830405120       0.0%    100.0%      0.0%
 flops    13 x    13 x    96        1117704327168       0.0%    100.0%      0.0%
 flops   758 x    96 x   387        1218366849024       0.0%    100.0%      0.0%
 flops    26 x    26 x    96        1234664570880       0.0%    100.0%      0.0%
 flops    13 x    26 x    96        1241809360896       0.0%    100.0%      0.0%
 flops    26 x    13 x    96        1242035718144       0.0%    100.0%      0.0%
 flops   160 x    96 x   361        1354212311040       0.0%    100.0%      0.0%
 flops   160 x    96 x    96        1468425830400       0.0%    100.0%      0.0%
 flops   758 x    96 x   361        1704769118208       0.0%    100.0%      0.0%
 flops   758 x    96 x    64        1881340379136       0.0%    100.0%      0.0%
 flops   758 x    64 x    96        1881340379136       0.0%    100.0%      0.0%
 flops   748 x    96 x    96        2784780877824       0.0%    100.0%      0.0%
 flops   758 x    96 x    96        5644021137408       0.0%    100.0%      0.0%
 flops    13 x    32 x    13        6033679122432       0.0%    100.0%      0.0%
 flops    26 x    32 x    26        6733955072000       0.0%    100.0%      0.0%
 flops    26 x    32 x    13        6833159077888       0.0%    100.0%      0.0%
 flops    13 x    32 x    26        6833159077888       0.0%    100.0%      0.0%
 flops inhomo. stacks              14140823961600     100.0%      0.0%      0.0%
 flops total                        81.150749E+12      17.4%     82.6%      0.0%
 flops max/rank                      1.305120E+12      18.0%     82.0%      0.0%
 matmuls inhomo. stacks                    746208     100.0%      0.0%      0.0%
 matmuls total                         1787562880       0.0%    100.0%      0.0%
 number of processed stacks              13409216       5.2%     94.8%      0.0%
 average stack size                                     1.1     140.6       0.0
 marketing flops                    93.359956E+12
 -------------------------------------------------------------------------------
 # multiplications                           6324
 max memory usage/rank             324.956160E+06
 # max total images/rank                        2
 # max 3D layers                                1
 # MPI messages exchanged                 9561888
 MPI messages size (bytes):
  total size                         3.983631E+12
  min size                           0.000000E+00
  max size                           2.455920E+06
  average size                     416.615500E+03
 MPI breakdown and total messages size (bytes):
             size <=      128               34752                        0
       128 < size <=     8192                   0                        0
      8192 < size <=    32768              284080               9298247680
     32768 < size <=   131072             3463080             268156272640
    131072 < size <=  4194304             5779976            3706156479744
   4194304 < size <= 16777216                   0                        0
  16777216 < size                               0                        0
 -------------------------------------------------------------------------------

 *** WARNING in dbcsr_mm.F:295 :: Using a non-square number of MPI ranks ***
 *** might lead to poor performance. Used ranks: 72 Suggested: 64 144    ***

 -------------------------------------------------------------------------------
 -                                                                             -
 -                      DBCSR MESSAGE PASSING PERFORMANCE                      -
 -                                                                             -
 -------------------------------------------------------------------------------
 ROUTINE             CALLS      AVE VOLUME [Bytes]
 MP_Group              219
 MP_Bcast               74                     12.
 MP_Allreduce        34143                     19.
 MP_Alltoall         20906                  68263.
 MP_Wait            556512
 MP_ISend           296872                 201012.
 MP_IRecv           296872                 198603.
 MP_Memory          312174
 -------------------------------------------------------------------------------

 MEMORY| Estimated peak process memory [MiB]                                 310

 -------------------------------------------------------------------------------
 ----                             MULTIGRID INFO                            ----
 -------------------------------------------------------------------------------
 count for grid        1:        3474518          cutoff [a.u.]          250.00
 count for grid        2:        1994394          cutoff [a.u.]           83.33
 count for grid        3:        2639706          cutoff [a.u.]           27.78
 count for grid        4:        1514456          cutoff [a.u.]            9.26
 count for grid        5:           3960          cutoff [a.u.]            3.09
 total gridlevel count  :        9627034

 -------------------------------------------------------------------------------
 -                                                                             -
 -                         MESSAGE PASSING PERFORMANCE                         -
 -                                                                             -
 -------------------------------------------------------------------------------

 ROUTINE             CALLS      AVE VOLUME [Bytes]
 MP_Group                5
 MP_Bcast             7112                  79666.
 MP_Allreduce        20197                   1236.
 MP_Sync                 5
 MP_Alltoall          9369                7672815.
 MP_SendRecv          3976                   6013.
 MP_ISendRecv       143349                  36096.
 MP_Wait            182512
 MP_ISend            33602                 379713.
 MP_IRecv            33602                 379740.
 MP_Recv               989                 838603.
 -------------------------------------------------------------------------------


 -------------------------------------------------------------------------------
 -                                                                             -
 -                           R E F E R E N C E S                               -
 -                                                                             -
 -------------------------------------------------------------------------------
 
 CP2K version 7.1, the CP2K developers group (2019).
 CP2K is freely available from https://www.cp2k.org/ .

 Schuett, Ole; Messmer, Peter; Hutter, Juerg; VandeVondele, Joost. 
 Electronic Structure Calculations on Graphics Processing Units, John
 Wiley & Sons, Ltd, 173-190 (2016). 
 GPU-Accelerated Sparse Matrix-Matrix Multiplication for
 Linear Scaling Density Functional Theory.
 https://dx.doi.org/10.1002/9781118670712.ch8

 Borstnik, U; VandeVondele, J; Weber, V; Hutter, J. 
 PARALLEL COMPUTING, 40 (5-6), 47-58 (2014). 
 Sparse matrix multiplication: The distributed block-compressed sparse
 row library.
 https://dx.doi.org/10.1016/j.parco.2014.03.012

 Hutter, J; Iannuzzi, M; Schiffmann, F; VandeVondele, J. 
 WIREs Comput Mol Sci., 4 (1), 15-25 (2014). 
 CP2K: atomistic simulations of condensed matter systems.
 https://dx.doi.org/10.1002/wcms.1159

 Marek, A; Blum, V; Johanni, R; Havu, V; Lang, B; Auckenthaler, T;
 Heinecke, A; Bungartz, H; Lederer, H. 
 Journal of Physics: Condensed Matter, 26 (21), (2014). 
 The ELPA library: scalable parallel eigenvalue solutions for
 electronic structure
 theory and computational science.
 https://dx.doi.org/10.1088/0953-8984/26/21/213201

 Grimme, S; Ehrlich, S; Goerigk, L. 
 JOURNAL OF COMPUTATIONAL CHEMISTRY, 32, 1456 (2011). 
 Effect of the damping function in dispersion corrected density functional theory.
 https://dx.doi.org/10.1002/jcc.21759

 Grimme, S; Antony, J; Ehrlich, S; Krieg, H. 
 JOURNAL OF CHEMICAL PHYSICS, 132 (15), 154104 (2010). 
 A consistent and accurate ab initio parametrization of density
 functional dispersion correction (DFT-D) for the 94 elements H-Pu.
 https://dx.doi.org/10.1063/1.3382344

 VandeVondele, J; Hutter, J. 
 JOURNAL OF CHEMICAL PHYSICS, 127 (11), 114105 (2007). 
 Gaussian basis sets for accurate calculations on molecular systems in
 gas and condensed phases.
 https://dx.doi.org/10.1063/1.2770708

 Krack, M. 
 THEORETICAL CHEMISTRY ACCOUNTS, 114 (1-3), 145-152 (2005). 
 Pseudopotentials for H to Kr optimized for gradient-corrected
 exchange-correlation functionals.
 https://dx.doi.org/10.1007/s00214-005-0655-y

 VandeVondele, J; Krack, M; Mohamed, F; Parrinello, M; Chassaing, T;
 Hutter, J. COMPUTER PHYSICS COMMUNICATIONS, 167 (2), 103-128 (2005). 
 QUICKSTEP: Fast and accurate density functional calculations using a
 mixed Gaussian and plane waves approach.
 https://dx.doi.org/10.1016/j.cpc.2004.12.014

 Frigo, M; Johnson, SG. 
 PROCEEDINGS OF THE IEEE, 93 (2), 216-231 (2005). 
 The design and implementation of FFTW3.
 https://dx.doi.org/10.1109/JPROC.2004.840301

 Kolafa, J. 
 JOURNAL OF COMPUTATIONAL CHEMISTRY, 25 (3), 335-342 (2004). 
 Time-reversible always stable predictor-corrector method for molecular dynamics of polarizable molecules.
 https://dx.doi.org/10.1002/jcc.10385

 VandeVondele, J; Hutter, J. 
 JOURNAL OF CHEMICAL PHYSICS, 118 (10), 4365-4369 (2003). 
 An efficient orbital transformation method for electronic structure
 calculations.
 https://dx.doi.org/10.1063/1.1543154

 Hartwigsen, C; Goedecker, S; Hutter, J. 
 PHYSICAL REVIEW B, 58 (7), 3641-3662 (1998). 
 Relativistic separable dual-space Gaussian pseudopotentials from H to Rn.
 https://dx.doi.org/10.1103/PhysRevB.58.3641

 Lippert, G; Hutter, J; Parrinello, M. 
 MOLECULAR PHYSICS, 92 (3), 477-487 (1997). 
 A hybrid Gaussian and plane wave density functional scheme.
 https://dx.doi.org/10.1080/002689797170220

 Perdew, JP; Burke, K; Ernzerhof, M. 
 PHYSICAL REVIEW LETTERS, 77 (18), 3865-3868 (1996). 
 Generalized gradient approximation made simple.
 https://dx.doi.org/10.1103/PhysRevLett.77.3865

 Goedecker, S; Teter, M; Hutter, J. 
 PHYSICAL REVIEW B, 54 (3), 1703-1710 (1996). 
 Separable dual-space Gaussian pseudopotentials.
 https://dx.doi.org/10.1103/PhysRevB.54.1703


 -------------------------------------------------------------------------------
 -                                                                             -
 -                                T I M I N G                                  -
 -                                                                             -
 -------------------------------------------------------------------------------
 SUBROUTINE                       CALLS  ASD         SELF TIME        TOTAL TIME
                                MAXIMUM       AVERAGE  MAXIMUM  AVERAGE  MAXIMUM
 CP2K                                 1  1.0    0.055    0.128  853.025  853.062
 cp_geo_opt                           1  2.0    0.015    0.100  852.419  852.472
 geoopt_bfgs                          1  3.0    0.117    0.148  852.404  852.471
 cp_eval_at                          15  4.0    0.003    0.105  850.446  850.662
 qs_forces                           14  5.0    0.003    0.003  824.553  824.588
 qs_energies                         15  5.9    0.001    0.002  789.995  790.216
 scf_env_do_scf                      15  6.9    0.001    0.005  759.591  759.626
 scf_env_do_scf_inner_loop          322  8.0    0.011    0.026  728.990  729.408
 rebuild_ks_matrix                  336  9.8    0.001    0.001  460.364  461.511
 qs_ks_build_kohn_sham_matrix       336 10.8    0.041    0.047  460.362  461.510
 qs_ks_update_qs_env                338  9.0    0.002    0.003  430.412  431.504
 pw_transfer                       7077 13.5    0.393    0.468  221.329  229.992
 sum_up_and_integrate               336 11.8    0.432    0.523  229.498  229.678
 integrate_v_rspace                 336 12.8  160.786  168.659  229.065  229.310
 qs_rho_update_rho                  337  9.0    0.002    0.003  228.232  228.419
 calculate_rho_elec                 337 10.0  141.818  150.435  228.230  228.418
 fft_wrap_pw1pw2                   6405 14.6    0.065    0.073  219.064  227.719
 fft_wrap_pw1pw2_250               3713 15.7   10.998   13.010  208.548  216.588
 fft3d_ps                          6405 16.6   86.757   98.569  181.070  190.175
 qs_vxc_create                      336 11.8    0.006    0.007  184.425  186.156
 xc_vxc_pw_create                   336 12.8    4.331    5.460  184.420  186.151
 dbcsr_multiply_generic            6324 13.9    0.324    0.349  118.278  120.230
 qs_scf_new_mos                     322  9.0    0.002    0.002  101.036  103.183
 qs_scf_loop_do_ot                  322 10.0    0.002    0.002  101.034  103.181
 mp_alltoall_z22v                  6405 18.6   79.370  102.941   79.370  102.941
 xc_rho_set_and_dset_create         336 13.8    0.567    0.643   93.201  101.746
 ot_scf_mini                        322 11.0    0.007    0.009   92.245   93.939
 multiply_cannon                   6324 14.9    0.864    0.970   82.654   89.695
 density_rs2pw                      337 11.0    0.022    0.026   72.908   83.696
 rs_pw_transfer                    3424 13.4    0.051    0.063   65.587   76.151
 yz_to_x                           2033 17.4    3.975    5.417   46.705   63.053
 ot_mini                            322 12.0    0.035    0.038   56.544   58.502
 multiply_cannon_multrec          75888 15.9   48.790   55.412   48.821   55.444
 potential_pw2rs                    336 13.8    0.042    0.048   55.030   55.181
 x_to_yz                           2353 17.9    7.560    9.392   43.940   51.831
 mp_waitall_1                    705422 16.9   41.522   49.763   41.522   49.763
 mp_waitany                       33602 15.3   29.384   44.812   29.384   44.812
 xc_functional_eval                 336 14.8    0.002    0.004   31.662   40.654
 pbe_lda_eval                       336 15.8   31.660   40.652   31.660   40.652
 qs_ot_get_derivative               322 13.0    0.003    0.004   38.020   39.738
 multiply_cannon_metrocomm3       75888 15.9    0.205    0.221   13.016   30.713
 qs_ks_update_qs_env_forces          14  6.0    0.000    0.000   30.393   30.442
 rs_pw_transfer_RS2PW_250           367 12.9    7.254    9.638   19.905   30.341
 init_scf_loop                       16  7.9    0.000    0.001   30.087   30.095
 build_core_hamiltonian_matrix_      14  6.0    0.001    0.001   26.347   29.842
 rs_distribute_matrix               687 12.4    2.335    3.292   20.133   28.615
 mp_alltoall_d11v                  4428 15.3   17.748   28.162   17.748   28.162
 make_m2s                         12648 14.9    0.255    0.270   26.534   27.400
 make_images                      12648 15.9    0.433    0.466   22.978   23.814
 qs_ot_get_derivative_taylor        273 14.0    0.009    0.011   21.065   22.502
 rs_pw_transfer_PW2RS_250           365 15.5   11.720   12.974   20.239   21.512
 build_core_ppnl_forces              14  7.0   16.404   18.441   16.404   18.441
 ot_diis_step                       322 13.0    0.029    0.057   18.303   18.315
 multiply_cannon_metrocomm1       75888 15.9    0.126    0.142   10.930   18.167
 mp_sum_d                          9779 13.9    8.614   17.883    8.614   17.883
 apply_preconditioner_dbcsr         338 14.0    0.001    0.001   16.665   17.367
 apply_single                       338 15.0    0.002    0.003   16.664   17.366
 -------------------------------------------------------------------------------

 The number of warnings for this run is : 2
 
 -------------------------------------------------------------------------------
  **** **** ******  **  PROGRAM ENDED AT                 2021-12-27 13:33:03.341
 ***** ** ***  *** **   PROGRAM RAN ON                                   c51-012
 **    ****   ******    PROGRAM RAN BY                                  ybzhuang
 ***** **    ** ** **   PROGRAM PROCESS ID                                  4877
  **** **  *******  **  PROGRAM STOPPED IN /data/ybzhuang/workdirs/07-rutile110-
                                           ml/01.new_dpgen/08.odd_even/00.5L_geo
                                           _opt
