# Projected DOS for atomic kind Bi at iteration step i = 0, E(Fermi) =     0.022868 a.u.
#     MO Eigenvalue [a.u.]      Occupation                 s                py                pz                px               d-2               d-1                d0               d+1               d+2
       1         -2.586562        2.000000        0.00075050        0.00278559        0.00157965        0.00232215        0.00135089        0.00070626        0.00049512        0.00034609        0.00013249
       2         -2.583075        2.000000        0.00092818        0.00345378        0.00170772        0.00164000        0.00096692        0.00065527        0.00064719        0.00031057        0.00011352
       3         -2.582983        2.000000        0.00057589        0.00212528        0.00111946        0.00354862        0.00206406        0.00054258        0.00039653        0.00039031        0.00011931
       4         -2.582170        2.000000        0.00072933        0.00295147        0.00138335        0.00254497        0.00167307        0.00058147        0.00052353        0.00035237        0.00010722
       5         -2.578556        2.000000        0.00076009        0.00249630        0.00154378        0.00270791        0.00137762        0.00046700        0.00057946        0.00042522        0.00010717
       6         -2.578080        2.000000        0.00078170        0.00314186        0.00151352        0.00204218        0.00130645        0.00048764        0.00057136        0.00039104        0.00010862
       7         -2.577923        2.000000        0.00064067        0.00215820        0.00131338        0.00317609        0.00173227        0.00047067        0.00046496        0.00048134        0.00011380
       8         -2.577668        2.000000        0.00073731        0.00267775        0.00151720        0.00255432        0.00142289        0.00057036        0.00055883        0.00036407        0.00011565
       9         -2.577363        2.000000        0.00073833        0.00265995        0.00146506        0.00267619        0.00146445        0.00048413        0.00055117        0.00043344        0.00011389
      10         -2.577182        2.000000        0.00113125        0.00397977        0.00133691        0.00251522        0.00157162        0.00041233        0.00024498        0.00030349        0.00009773
      11         -2.577175        2.000000        0.00036747        0.00145495        0.00147705        0.00259153        0.00148293        0.00062701        0.00080727        0.00042372        0.00012251
      12         -2.577011        2.000000        0.00073703        0.00256378        0.00146558        0.00253796        0.00142807        0.00052022        0.00053774        0.00042194        0.00011241
      13         -2.576692        2.000000        0.00059608        0.00263300        0.00088484        0.00237725        0.00148457        0.00044023        0.00048295        0.00010366        0.00007300
      14         -2.576649        2.000000        0.00066114        0.00274640        0.00138491        0.00270984        0.00161054        0.00060700        0.00048783        0.00036120        0.00011528
      15         -2.576507        2.000000        0.00070109        0.00267347        0.00144248        0.00240884        0.00163629        0.00061148        0.00050236        0.00038055        0.00011905
      16         -2.576260        2.000000        0.00063310        0.00276822        0.00086186        0.00240347        0.00159216        0.00045416        0.00046474        0.00012054        0.00008144
      17         -2.575996        2.000000        0.00069135        0.00263715        0.00135218        0.00261224        0.00156708        0.00050637        0.00049448        0.00044034        0.00011177
      18         -2.575005        2.000000        0.00070418        0.00258285        0.00135250        0.00260785        0.00157069        0.00048248        0.00048690        0.00043970        0.00010672
      19         -2.574552        2.000000        0.00065459        0.00289240        0.00102338        0.00243769        0.00168923        0.00058151        0.00036609        0.00013434        0.00007312
      20         -2.571413        2.000000        0.00061380        0.00271897        0.00098837        0.00231718        0.00151263        0.00054783        0.00041307        0.00013336        0.00008177
      21         -2.571349        2.000000        0.00061742        0.00267689        0.00111391        0.00213760        0.00132939        0.00063498        0.00038389        0.00012318        0.00011440
      22         -2.566003        2.000000        0.00073376        0.00326223        0.00110551        0.00250802        0.00168561        0.00065051        0.00046369        0.00013597        0.00010846
      23         -2.560982        2.000000        0.00063099        0.00275939        0.00113692        0.00223778        0.00147164        0.00065121        0.00041258        0.00012577        0.00009397
      24         -2.559921        2.000000        0.00071805        0.00322044        0.00105703        0.00260743        0.00183090        0.00058397        0.00048176        0.00013172        0.00008422
      25         -1.492938        2.000000        0.00039158        0.00153750        0.00057614        0.00120227        0.00092930        0.00008138        0.00031628        0.00030782        0.00008047
      26         -1.489559        2.000000        0.00029161        0.00074717        0.00106075        0.00045173        0.00012076        0.00058474        0.00009672        0.00040415        0.00013435
      27         -1.488902        2.000000        0.00037848        0.00167235        0.00060024        0.00112212        0.00101104        0.00008917        0.00031573        0.00031119        0.00007963
      28         -1.488776        2.000000        0.00044815        0.00097860        0.00082711        0.00145142        0.00065668        0.00050315        0.00030404        0.00015608        0.00011228
      29         -1.488331        2.000000        0.00044195        0.00154935        0.00053585        0.00129968        0.00099200        0.00007068        0.00033965        0.00031491        0.00010696
      30         -1.487924        2.000000        0.00041211        0.00178181        0.00055627        0.00110070        0.00105499        0.00008681        0.00031487        0.00029796        0.00009020
      31         -1.487017        2.000000        0.00043615        0.00107081        0.00076301        0.00131786        0.00070833        0.00041720        0.00030306        0.00016281        0.00010863
      32         -1.486434        2.000000        0.00037623        0.00093383        0.00089887        0.00104033        0.00047761        0.00053710        0.00021032        0.00029473        0.00012319
      33         -1.485827        2.000000        0.00033862        0.00087897        0.00098015        0.00096313        0.00039325        0.00053035        0.00016806        0.00030241        0.00012467
      34         -1.485731        2.000000        0.00030210        0.00074674        0.00090846        0.00074078        0.00013367        0.00069824        0.00013165        0.00031228        0.00011620
      35         -1.485680        2.000000        0.00031813        0.00070851        0.00105400        0.00070319        0.00054387        0.00032912        0.00017634        0.00039465        0.00012209
      36         -1.484506        2.000000        0.00040463        0.00098111        0.00096394        0.00103075        0.00052736        0.00055250        0.00021824        0.00026159        0.00011010
      37         -1.483777        2.000000        0.00043241        0.00149695        0.00069447        0.00124738        0.00087054        0.00010930        0.00033784        0.00035923        0.00009112
      38         -1.483540        2.000000        0.00026705        0.00136645        0.00018837        0.00088373        0.00073255        0.00011763        0.00017041        0.00005031        0.00006721
      39         -1.483194        2.000000        0.00040294        0.00170575        0.00070919        0.00115985        0.00096610        0.00010911        0.00030844        0.00034406        0.00008897
      40         -1.483043        2.000000        0.00043202        0.00150024        0.00068823        0.00147023        0.00101764        0.00010341        0.00033978        0.00032763        0.00010020
      41         -1.482978        2.000000        0.00043546        0.00161253        0.00053498        0.00108495        0.00079815        0.00007225        0.00028546        0.00040368        0.00009304
      42         -1.482914        2.000000        0.00034678        0.00156059        0.00013200        0.00104182        0.00095609        0.00008435        0.00021125        0.00005158        0.00007294
      43         -1.482723        2.000000        0.00030709        0.00152735        0.00051083        0.00164001        0.00107232        0.00005609        0.00045310        0.00034409        0.00012784
      44         -1.482703        2.000000        0.00058184        0.00171314        0.00075268        0.00090178        0.00082977        0.00012856        0.00018591        0.00033510        0.00006168
      45         -1.482475        2.000000        0.00043250        0.00145149        0.00066846        0.00118265        0.00095219        0.00009618        0.00033672        0.00038059        0.00009575
      46         -1.482371        2.000000        0.00038678        0.00162029        0.00061363        0.00123077        0.00110241        0.00010072        0.00027782        0.00034852        0.00009559
      47         -1.482160        2.000000        0.00045341        0.00195521        0.00049937        0.00117946        0.00094791        0.00006324        0.00028458        0.00030872        0.00008771
      48         -1.482103        2.000000        0.00037989        0.00105975        0.00074022        0.00143565        0.00071801        0.00036945        0.00037584        0.00013110        0.00011591
      49         -1.481956        2.000000        0.00043512        0.00164389        0.00055319        0.00113815        0.00109597        0.00006206        0.00030556        0.00033815        0.00009841
      50         -1.481718        2.000000        0.00046145        0.00129720        0.00071538        0.00105820        0.00060544        0.00038504        0.00039204        0.00012053        0.00014464
      51         -1.481583        2.000000        0.00036533        0.00090848        0.00069449        0.00191084        0.00104820        0.00036545        0.00031749        0.00009726        0.00008300
      52         -1.481443        2.000000        0.00020363        0.00040200        0.00118710        0.00041117        0.00006381        0.00060148        0.00011933        0.00044829        0.00010008
      53         -1.481198        2.000000        0.00036339        0.00116763        0.00059641        0.00143800        0.00124322        0.00013469        0.00023709        0.00038888        0.00009811
      54         -1.481174        2.000000        0.00048393        0.00157291        0.00086159        0.00154979        0.00059989        0.00041783        0.00034736        0.00013258        0.00012230
      55         -1.481095        2.000000        0.00020710        0.00068068        0.00065007        0.00027218        0.00023729        0.00043288        0.00009225        0.00019379        0.00007473
      56         -1.481042        2.000000        0.00040415        0.00095168        0.00081879        0.00108135        0.00050413        0.00037849        0.00032932        0.00024877        0.00010222
      57         -1.480926        2.000000        0.00016269        0.00050552        0.00072842        0.00012489        0.00008734        0.00049355        0.00004335        0.00025390        0.00006843
      58         -1.480847        2.000000        0.00021621        0.00040678        0.00133613        0.00045538        0.00011902        0.00062533        0.00013409        0.00041447        0.00011229
      59         -1.480758        2.000000        0.00019868        0.00045714        0.00128179        0.00039730        0.00007264        0.00071533        0.00010054        0.00046856        0.00008865
      60         -1.480731        2.000000        0.00042246        0.00110397        0.00066964        0.00155132        0.00088248        0.00037497        0.00034274        0.00009594        0.00010921
      61         -1.480578        2.000000        0.00051949        0.00105875        0.00081296        0.00140703        0.00076579        0.00043189        0.00034108        0.00015361        0.00013369
      62         -1.480533        2.000000        0.00022359        0.00049661        0.00073666        0.00042617        0.00013895        0.00028682        0.00009430        0.00046670        0.00013348
      63         -1.480523        2.000000        0.00034838        0.00147228        0.00029300        0.00095498        0.00087615        0.00021152        0.00016612        0.00011609        0.00007343
      64         -1.480438        2.000000        0.00038724        0.00080830        0.00069093        0.00173939        0.00091925        0.00036765        0.00024199        0.00010833        0.00013316
      65         -1.480334        2.000000        0.00048329        0.00170367        0.00061965        0.00095214        0.00072016        0.00010562        0.00035761        0.00035295        0.00007643
      66         -1.480196        2.000000        0.00023061        0.00048924        0.00151162        0.00033829        0.00006252        0.00066690        0.00008566        0.00051304        0.00009423
      67         -1.480053        2.000000        0.00031747        0.00102549        0.00088591        0.00168235        0.00056465        0.00049751        0.00022576        0.00031160        0.00010176
      68         -1.479995        2.000000        0.00030940        0.00051159        0.00081020        0.00061226        0.00037007        0.00034953        0.00016459        0.00029118        0.00012422
      69         -1.479952        2.000000        0.00048831        0.00094247        0.00075727        0.00155244        0.00088707        0.00046589        0.00029999        0.00013255        0.00011955
      70         -1.479741        2.000000        0.00023859        0.00066257        0.00108075        0.00034282        0.00015445        0.00056102        0.00014278        0.00044311        0.00010021
      71         -1.479679        2.000000        0.00035345        0.00068338        0.00125987        0.00059337        0.00020446        0.00048331        0.00015139        0.00057311        0.00012060
      72         -1.479516        2.000000        0.00022118        0.00059131        0.00083431        0.00033326        0.00007874        0.00040289        0.00014180        0.00019761        0.00012976
      73         -1.479483        2.000000        0.00035917        0.00073601        0.00102069        0.00115599        0.00039996        0.00052968        0.00010771        0.00034017        0.00013804
      74         -1.479411        2.000000        0.00020765        0.00074649        0.00074355        0.00036431        0.00024177        0.00046374        0.00007749        0.00018331        0.00006936
      75         -1.479371        2.000000        0.00023763        0.00071796        0.00070446        0.00060188        0.00047554        0.00039236        0.00026446        0.00018902        0.00008969
      76         -1.478943        2.000000        0.00042328        0.00102888        0.00066853        0.00157029        0.00085159        0.00032010        0.00038179        0.00009450        0.00012192
      77         -1.478745        2.000000        0.00026688        0.00056946        0.00103561        0.00051388        0.00013956        0.00051007        0.00010491        0.00040376        0.00012501
      78         -1.478477        2.000000        0.00035990        0.00087148        0.00077332        0.00116755        0.00066241        0.00037213        0.00027318        0.00022291        0.00011175
      79         -1.478443        2.000000        0.00046955        0.00109327        0.00063347        0.00142649        0.00092616        0.00031957        0.00037687        0.00009915        0.00014162
      80         -1.477959        2.000000        0.00033306        0.00147937        0.00014546        0.00099257        0.00083988        0.00009745        0.00018833        0.00008140        0.00007102
      81         -1.477772        2.000000        0.00040226        0.00105433        0.00065197        0.00144958        0.00089280        0.00038038        0.00027967        0.00015257        0.00007967
      82         -1.477671        2.000000        0.00040306        0.00122625        0.00082784        0.00086372        0.00046951        0.00042477        0.00011274        0.00033455        0.00011677
      83         -1.477462        2.000000        0.00019549        0.00093038        0.00023257        0.00085654        0.00071596        0.00014035        0.00022862        0.00006341        0.00004504
      84         -1.476431        2.000000        0.00017177        0.00064242        0.00070890        0.00007406        0.00005828        0.00049057        0.00002889        0.00019967        0.00010411
      85         -1.475961        2.000000        0.00019701        0.00064757        0.00072928        0.00028807        0.00018409        0.00048429        0.00007248        0.00021217        0.00008902
      86         -1.474404        2.000000        0.00041626        0.00102087        0.00079078        0.00135179        0.00077338        0.00043656        0.00031775        0.00012616        0.00011073
      87         -1.473923        2.000000        0.00045220        0.00106241        0.00083374        0.00145868        0.00079476        0.00047485        0.00033101        0.00014946        0.00012890
      88         -1.472735        2.000000        0.00040552        0.00181760        0.00012149        0.00110774        0.00106049        0.00008021        0.00024939        0.00005154        0.00009965
      89         -1.470675        2.000000        0.00019568        0.00070152        0.00079643        0.00012385        0.00010631        0.00058280        0.00004061        0.00024286        0.00010543
      90         -1.469346        2.000000        0.00047204        0.00118036        0.00081900        0.00151940        0.00089269        0.00047892        0.00033496        0.00014879        0.00011867
      91         -1.467647        2.000000        0.00033926        0.00160516        0.00013943        0.00108563        0.00093659        0.00008430        0.00021384        0.00005438        0.00006236
      92         -1.466707        2.000000        0.00043081        0.00182823        0.00016607        0.00121031        0.00112034        0.00009808        0.00025111        0.00006143        0.00009655
      93         -1.465453        2.000000        0.00018178        0.00063316        0.00083603        0.00007593        0.00005625        0.00057769        0.00003722        0.00022238        0.00009265
      94         -1.463994        2.000000        0.00016980        0.00060033        0.00086328        0.00006220        0.00005392        0.00058681        0.00003865        0.00025584        0.00008753
      95         -1.463486        2.000000        0.00043527        0.00105453        0.00075613        0.00148832        0.00082029        0.00042155        0.00032593        0.00014112        0.00010799
      96         -1.462305        2.000000        0.00046714        0.00115286        0.00069972        0.00152182        0.00094680        0.00037333        0.00034853        0.00013753        0.00009638
      97         -0.799558        2.000000        0.00000627        0.00000050        0.00001931        0.00000036        0.00000011        0.00000033        0.00000254        0.00000022        0.00000006
      98         -0.793026        2.000000        0.00009388        0.00000812        0.00028040        0.00000753        0.00000263        0.00000556        0.00003963        0.00000416        0.00000192
      99         -0.792845        2.000000        0.00119085        0.00014520        0.00354271        0.00006388        0.00003102        0.00007108        0.00040217        0.00005146        0.00000626
     100         -0.788244        2.000000        0.00032483        0.00003966        0.00094415        0.00003098        0.00001198        0.00002145        0.00012209        0.00001822        0.00000678
     101         -0.788001        2.000000        0.00023337        0.00001623        0.00065799        0.00003934        0.00000757        0.00000922        0.00008819        0.00002331        0.00000694
     102         -0.785481        2.000000        0.00012010        0.00000966        0.00034128        0.00000465        0.00000564        0.00000625        0.00005914        0.00000372        0.00000713
     103         -0.784556        2.000000        0.00049427        0.00062872        0.00178372        0.00014381        0.00001783        0.00034083        0.00029214        0.00008638        0.00003302
     104         -0.784044        2.000000        0.00018249        0.00019051        0.00056022        0.00011756        0.00000679        0.00011814        0.00008178        0.00010487        0.00001019
     105         -0.783689        2.000000        0.00059682        0.00004895        0.00192020        0.00019158        0.00001598        0.00002896        0.00027161        0.00013939        0.00001713
     106         -0.782610        2.000000        0.00004451        0.00000622        0.00014254        0.00001406        0.00000195        0.00000450        0.00003499        0.00001178        0.00000203
     107         -0.781521        2.000000        0.00059528        0.00002954        0.00167853        0.00033139        0.00002091        0.00001945        0.00032952        0.00026386        0.00001821
     108         -0.781081        2.000000        0.00038663        0.00009535        0.00118144        0.00018549        0.00001234        0.00004632        0.00025168        0.00013656        0.00001833
     109         -0.780862        2.000000        0.00010673        0.00004121        0.00032695        0.00012263        0.00000581        0.00002709        0.00005904        0.00010375        0.00000545
     110         -0.780144        2.000000        0.00186563        0.00021887        0.00517173        0.00079633        0.00011912        0.00017294        0.00092356        0.00050469        0.00017314
     111         -0.779124        2.000000        0.00028410        0.00006503        0.00075237        0.00021942        0.00002694        0.00005171        0.00014551        0.00016637        0.00002127
     112         -0.777906        2.000000        0.00073997        0.00001182        0.00215324        0.00037635        0.00002765        0.00001125        0.00031247        0.00028220        0.00002304
     113         -0.777527        2.000000        0.00094933        0.00010606        0.00231693        0.00177055        0.00009416        0.00010781        0.00030084        0.00123009        0.00004537
     114         -0.776636        2.000000        0.00115159        0.00002049        0.00299069        0.00035508        0.00006156        0.00001404        0.00045978        0.00024781        0.00002328
     115         -0.776058        2.000000        0.00050632        0.00001684        0.00124259        0.00012256        0.00003179        0.00001620        0.00024678        0.00010254        0.00006974
     116         -0.775062        2.000000        0.00027536        0.00006055        0.00090808        0.00013534        0.00000894        0.00003715        0.00025094        0.00010714        0.00001028
     117         -0.774061        2.000000        0.00030583        0.00005096        0.00096093        0.00010856        0.00002095        0.00002895        0.00025714        0.00010487        0.00003174
     118         -0.773380        2.000000        0.00111783        0.00020944        0.00358597        0.00075867        0.00008090        0.00017537        0.00082572        0.00065254        0.00022215
     119         -0.772643        2.000000        0.00189267        0.00016052        0.00554738        0.00084068        0.00016726        0.00014932        0.00128667        0.00075911        0.00029552
     120         -0.772100        2.000000        0.00101005        0.00012017        0.00338554        0.00048308        0.00007883        0.00010034        0.00084107        0.00044126        0.00008809
     121         -0.771151        2.000000        0.00055217        0.00012281        0.00191113        0.00067813        0.00001777        0.00010403        0.00051066        0.00075561        0.00005585
     122         -0.771051        2.000000        0.00080483        0.00053167        0.00379906        0.00026402        0.00005702        0.00036059        0.00150250        0.00040169        0.00002461
     123         -0.770195        2.000000        0.00103023        0.00021224        0.00308985        0.00086881        0.00009535        0.00016880        0.00066351        0.00087363        0.00003472
     124         -0.769897        2.000000        0.00029153        0.00020049        0.00079019        0.00013848        0.00001839        0.00014048        0.00017654        0.00012476        0.00002130
     125         -0.769114        2.000000        0.00185038        0.00020604        0.00483928        0.00065085        0.00038875        0.00023335        0.00131102        0.00051730        0.00011462
     126         -0.768966        2.000000        0.00082194        0.00019588        0.00245852        0.00038392        0.00016476        0.00014696        0.00057544        0.00041071        0.00006245
     127         -0.768181        2.000000        0.00059866        0.00003888        0.00264500        0.00022095        0.00024268        0.00002970        0.00097009        0.00024879        0.00006041
     128         -0.767614        2.000000        0.00043599        0.00024304        0.00129503        0.00313925        0.00005376        0.00031638        0.00035752        0.00328536        0.00012890
     129         -0.766610        2.000000        0.00250670        0.00033195        0.00552341        0.00073864        0.00045102        0.00022503        0.00116104        0.00066724        0.00023830
     130         -0.766075        2.000000        0.00088856        0.00051863        0.00442295        0.00077967        0.00013864        0.00020295        0.00207630        0.00083191        0.00005463
     131         -0.765645        2.000000        0.00113142        0.00031717        0.00345858        0.00071080        0.00010767        0.00026987        0.00097961        0.00077977        0.00005190
     132         -0.765006        2.000000        0.00023469        0.00056288        0.00088995        0.00048077        0.00002682        0.00044678        0.00033877        0.00048522        0.00002684
     133         -0.764617        2.000000        0.00089307        0.00069298        0.00302066        0.00140198        0.00009847        0.00060869        0.00082767        0.00165692        0.00004401
     134         -0.763663        2.000000        0.00062049        0.00106904        0.00157453        0.00058950        0.00010785        0.00066474        0.00031652        0.00058611        0.00007139
     135         -0.761925        2.000000        0.00120635        0.00027961        0.00347871        0.00050543        0.00018926        0.00020199        0.00113332        0.00052399        0.00005157
     136         -0.761783        2.000000        0.00043517        0.00087156        0.00112241        0.00036684        0.00012052        0.00073677        0.00028210        0.00042427        0.00002331
     137         -0.761411        2.000000        0.00036180        0.00061646        0.00108082        0.00193286        0.00006809        0.00053139        0.00032805        0.00198163        0.00002453
     138         -0.760965        2.000000        0.00081134        0.00049163        0.00195336        0.00054538        0.00012940        0.00030688        0.00055162        0.00045081        0.00006764
     139         -0.759659        2.000000        0.00050293        0.00050787        0.00149784        0.00085084        0.00013290        0.00053649        0.00045558        0.00101238        0.00005493
     140         -0.759050        2.000000        0.00035975        0.00060958        0.00132981        0.00110416        0.00004752        0.00064936        0.00060063        0.00137243        0.00005699
     141         -0.758393        2.000000        0.00025899        0.00039773        0.00063771        0.00058354        0.00004514        0.00031138        0.00016265        0.00059249        0.00003182
     142         -0.757344        2.000000        0.00045276        0.00268769        0.00135392        0.00044955        0.00004240        0.00208964        0.00030554        0.00064845        0.00010815
     143         -0.756970        2.000000        0.00089018        0.00057760        0.00243661        0.00044681        0.00011923        0.00045837        0.00076889        0.00048271        0.00008056
     144         -0.756288        2.000000        0.00062330        0.00044898        0.00189575        0.00079700        0.00006890        0.00038870        0.00070550        0.00093767        0.00005713