 DBCSR| CPU Multiplication driver                                           XSMM
 DBCSR| Multrec recursion limit                                              512
 DBCSR| Multiplication stack size                                           1000
 DBCSR| Maximum elements for images                                    UNLIMITED
 DBCSR| Multiplicative factor virtual images                                   1
 DBCSR| Use multiplication densification                                       T
 DBCSR| Multiplication size stacks                                             3
 DBCSR| Number of 3D layers                                               SINGLE
 DBCSR| Use MPI memory allocation                                              T
 DBCSR| Use RMA algorithm                                                      F
 DBCSR| Use Communication thread                                               T
 DBCSR| Communication thread load                                             87


  **** **** ******  **  PROGRAM STARTED AT               2022-01-03 17:16:35.200
 ***** ** ***  *** **   PROGRAM STARTED ON                               c51-026
 **    ****   ******    PROGRAM STARTED BY                              ybzhuang
 ***** **    ** ** **   PROGRAM PROCESS ID                                 11680
  **** **  *******  **  PROGRAM STARTED IN /data/ybzhuang/dpworkdir/5c6fccfa8c92
                                           b0d0f368b351028245f7e2471ae4/task.000
                                           .000000

 CP2K| version string:                                          CP2K version 7.1
 CP2K| source code revision number:                                  git:e635599
 CP2K| cp2kflags: libint fftw3 libxc elpa parallel mpi3 scalapack xsmm spglib   
 CP2K| is freely available from                            https://www.cp2k.org/
 CP2K| Program compiled at                           Mon Mar 8 20:53:19 CST 2021
 CP2K| Program compiled on                                                 mgt01
 CP2K| Program compiled for                                                local
 CP2K| Data directory path                        /data/share/apps/cp2k/7.1/data
 CP2K| Input file name                                                 input.inp

 GLOBAL| Force Environment number                                              1
 GLOBAL| Basis set file name                                        BASIS_MOLOPT
 GLOBAL| Potential file name                                      GTH_POTENTIALS
 GLOBAL| MM Potential file name                                     MM_POTENTIAL
 GLOBAL| Coordinate file name                                      __STD_INPUT__
 GLOBAL| Method name                                                        CP2K
 GLOBAL| Project name                                                      DPGEN
 GLOBAL| Preferred FFT library                                             FFTW3
 GLOBAL| Preferred diagonalization lib.                                     ELPA
 GLOBAL| Run type                                                   ENERGY_FORCE
 GLOBAL| All-to-all communication in single precision                          F
 GLOBAL| FFTs using library dependent lengths                                  F
 GLOBAL| Global print level                                               MEDIUM
 GLOBAL| MPI I/O enabled                                                       T
 GLOBAL| Total number of message passing processes                            72
 GLOBAL| Number of threads for this process                                    1
 GLOBAL| This output is from process                                           0
 GLOBAL| CPU model name                Intel(R) Xeon(R) CPU E5-2680 v3 @ 2.50GHz
 GLOBAL| CPUID                                                              1002

 MEMORY| system memory details [Kb]
 MEMORY|                        rank 0           min           max       average
 MEMORY| MemTotal             65234672      65234672      65234672      65234672
 MEMORY| MemFree              61762276      61548968      61762276      61653558
 MEMORY| Buffers                     0             0             0             0
 MEMORY| Cached                 166040        156696        198908        173881
 MEMORY| Slab                   213868        213868        217080        215857
 MEMORY| SReclaimable            53600         52456         58084         54713
 MEMORY| MemLikelyFree        61981916      61805960      61981916      61882153


 *** Fundamental physical constants (SI units) ***

 *** Literature: B. J. Mohr and B. N. Taylor,
 ***             CODATA recommended values of the fundamental physical
 ***             constants: 2006, Web Version 5.1
 ***             http://physics.nist.gov/constants

 Speed of light in vacuum [m/s]                             2.99792458000000E+08
 Magnetic constant or permeability of vacuum [N/A**2]       1.25663706143592E-06
 Electric constant or permittivity of vacuum [F/m]          8.85418781762039E-12
 Planck constant (h) [J*s]                                  6.62606896000000E-34
 Planck constant (h-bar) [J*s]                              1.05457162825177E-34
 Elementary charge [C]                                      1.60217648700000E-19
 Electron mass [kg]                                         9.10938215000000E-31
 Electron g factor [ ]                                     -2.00231930436220E+00
 Proton mass [kg]                                           1.67262163700000E-27
 Fine-structure constant                                    7.29735253760000E-03
 Rydberg constant [1/m]                                     1.09737315685270E+07
 Avogadro constant [1/mol]                                  6.02214179000000E+23
 Boltzmann constant [J/K]                                   1.38065040000000E-23
 Atomic mass unit [kg]                                      1.66053878200000E-27
 Bohr radius [m]                                            5.29177208590000E-11

 *** Conversion factors ***

 [u] -> [a.u.]                                              1.82288848426455E+03
 [Angstrom] -> [Bohr] = [a.u.]                              1.88972613288564E+00
 [a.u.] = [Bohr] -> [Angstrom]                              5.29177208590000E-01
 [a.u.] -> [s]                                              2.41888432650478E-17
 [a.u.] -> [fs]                                             2.41888432650478E-02
 [a.u.] -> [J]                                              4.35974393937059E-18
 [a.u.] -> [N]                                              8.23872205491840E-08
 [a.u.] -> [K]                                              3.15774647902944E+05
 [a.u.] -> [kJ/mol]                                         2.62549961709828E+03
 [a.u.] -> [kcal/mol]                                       6.27509468713739E+02
 [a.u.] -> [Pa]                                             2.94210107994716E+13
 [a.u.] -> [bar]                                            2.94210107994716E+08
 [a.u.] -> [atm]                                            2.90362800883016E+08
 [a.u.] -> [eV]                                             2.72113838565563E+01
 [a.u.] -> [Hz]                                             6.57968392072181E+15
 [a.u.] -> [1/cm] (wave numbers)                            2.19474631370540E+05
 [a.u./Bohr**2] -> [1/cm]                                   5.14048714338585E+03
 

 CELL_TOP| Volume [angstrom^3]:                                         3462.384
 CELL_TOP| Vector a [angstrom    10.056     0.000     0.000    |a| =      10.056
 CELL_TOP| Vector b [angstrom     0.000     8.709     0.000    |b| =       8.709
 CELL_TOP| Vector c [angstrom     0.000     0.000    39.535    |c| =      39.535
 CELL_TOP| Angle (b,c), alpha [degree]:                                   90.000
 CELL_TOP| Angle (a,c), beta  [degree]:                                   90.000
 CELL_TOP| Angle (a,b), gamma [degree]:                                   90.000
 CELL_TOP| Numerically orthorhombic:                                         YES

 GENERATE|  Preliminary Number of Bonds generated:                             0
 GENERATE|  Achieved consistency in connectivity generation.

 CELL| Volume [angstrom^3]:                                             3462.384
 CELL| Vector a [angstrom]:      10.056     0.000     0.000    |a| =      10.056
 CELL| Vector b [angstrom]:       0.000     8.709     0.000    |b| =       8.709
 CELL| Vector c [angstrom]:       0.000     0.000    39.535    |c| =      39.535
 CELL| Angle (b,c), alpha [degree]:                                       90.000
 CELL| Angle (a,c), beta  [degree]:                                       90.000
 CELL| Angle (a,b), gamma [degree]:                                       90.000
 CELL| Numerically orthorhombic:                                             YES

 CELL_REF| Volume [angstrom^3]:                                         3462.384
 CELL_REF| Vector a [angstrom    10.056     0.000     0.000    |a| =      10.056
 CELL_REF| Vector b [angstrom     0.000     8.709     0.000    |b| =       8.709
 CELL_REF| Vector c [angstrom     0.000     0.000    39.535    |c| =      39.535
 CELL_REF| Angle (b,c), alpha [degree]:                                   90.000
 CELL_REF| Angle (a,c), beta  [degree]:                                   90.000
 CELL_REF| Angle (a,b), gamma [degree]:                                   90.000
 CELL_REF| Numerically orthorhombic:                                         YES

 *******************************************************************************
 *******************************************************************************
 **                                                                           **
 **     #####                         ##              ##                      **
 **    ##   ##            ##          ##              ##                      **
 **   ##     ##                       ##            ######                    **
 **   ##     ##  ##   ##  ##   #####  ##  ##   ####   ##    #####    #####    **
 **   ##     ##  ##   ##  ##  ##      ## ##   ##      ##   ##   ##  ##   ##   **
 **   ##  ## ##  ##   ##  ##  ##      ####     ###    ##   ######   ######    **
 **    ##  ###   ##   ##  ##  ##      ## ##      ##   ##   ##       ##        **
 **     #######   #####   ##   #####  ##  ##  ####    ##    #####   ##        **
 **           ##                                                    ##        **
 **                                                                           **
 **                                                ... make the atoms dance   **
 **                                                                           **
 **            Copyright (C) by CP2K developers group (2000 - 2019)           **
 **                                                                           **
 *******************************************************************************

 DFT| Spin unrestricted (spin-polarized) Kohn-Sham calculation               UKS
 DFT| Multiplicity                                                             1
 DFT| Number of spin states                                                    2
 DFT| Charge                                                                   0
 DFT| Self-interaction correction (SIC)                                       NO
 DFT| Cutoffs: density                                              1.000000E-10
 DFT|          gradient                                             1.000000E-10
 DFT|          tau                                                  1.000000E-10
 DFT|          cutoff_smoothing_range                               0.000000E+00
 DFT| XC density smoothing                                                  NONE
 DFT| XC derivatives                                                          PW

 DFT+U| Method                                                          MULLIKEN
 DFT+U| Check atomic kind information for details
 FUNCTIONAL| ROUTINE=NEW
 FUNCTIONAL| PBE:
 FUNCTIONAL| J.P.Perdew, K.Burke, M.Ernzerhof, Phys. Rev. Letter, vol. 77, n 18,
 FUNCTIONAL|  pp. 3865-3868, (1996){spin polarized}                             
 vdW POTENTIAL|                                                   Pair Potential
 vdW POTENTIAL|          DFT-D3 (Version 3.1)
 vdW POTENTIAL|          Potential Form: S. Grimme et al, JCP 132: 154104 (2010)
 vdW POTENTIAL|          Zero Damping
 vdW POTENTIAL|          Cutoff Radius [Bohr]:                             20.00
 vdW POTENTIAL|          s6 Scaling Factor:                               1.0000
 vdW POTENTIAL|          sr6 Scaling Factor:                              1.2170
 vdW POTENTIAL|          s8 Scaling Factor:                               0.7220
 vdW POTENTIAL|          Cutoff for CN calculation:                   0.1000E-05

 QS| Method:                                                                 GPW
 QS| Density plane wave grid type                        NON-SPHERICAL FULLSPACE
 QS| Number of grid levels:                                                    5
 QS| Density cutoff [a.u.]:                                                400.0
 QS| Multi grid cutoff [a.u.]: 1) grid level                               400.0
 QS|                           2) grid level                               133.3
 QS|                           3) grid level                                44.4
 QS|                           4) grid level                                14.8
 QS|                           5) grid level                                 4.9
 QS| Grid level progression factor:                                          3.0
 QS| Relative density cutoff [a.u.]:                                        30.0
 QS| Consistent realspace mapping and integration 
 QS| Interaction thresholds: eps_pgf_orb:                                3.2E-07
 QS|                         eps_filter_matrix:                          0.0E+00
 QS|                         eps_core_charge:                            1.0E-15
 QS|                         eps_rho_gspace:                             1.0E-13
 QS|                         eps_rho_rspace:                             1.0E-13
 QS|                         eps_gvg_rspace:                             3.2E-07
 QS|                         eps_ppl:                                    1.0E-02
 QS|                         eps_ppnl:                                   3.2E-09


 ATOMIC KIND INFORMATION

  1. Atomic kind: H                                     Number of atoms:     170

     Orbital Basis Set                                        DZVP-MOLOPT-SR-GTH

       Number of orbital shell sets:                                           1
       Number of orbital shells:                                               3
       Number of primitive Cartesian functions:                                5
       Number of Cartesian basis functions:                                    5
       Number of spherical basis functions:                                    5
       Norm type:                                                              2

       Normalised Cartesian orbitals:

                        Set   Shell   Orbital            Exponent    Coefficient

                          1       1    2s               10.068468      -0.133023
                                                         2.680223      -0.177618
                                                         0.791502      -0.258419
                                                         0.239116      -0.107525
                                                         0.082193      -0.014019

                          1       2    3s               10.068468       0.344673
                                                         2.680223       1.819821
                                                         0.791502      -0.999069
                                                         0.239116       0.017430
                                                         0.082193       0.082660

                          1       3    3px              10.068468       0.155326
                                                         2.680223       0.367157
                                                         0.791502       0.311480
                                                         0.239116       0.080105
                                                         0.082193       0.033440
                          1       3    3py              10.068468       0.155326
                                                         2.680223       0.367157
                                                         0.791502       0.311480
                                                         0.239116       0.080105
                                                         0.082193       0.033440
                          1       3    3pz              10.068468       0.155326
                                                         2.680223       0.367157
                                                         0.791502       0.311480
                                                         0.239116       0.080105
                                                         0.082193       0.033440

     GTH Potential information for                                    GTH-PBE-q1

       Description:                       Goedecker-Teter-Hutter pseudopotential
                                           Goedecker et al., PRB 54, 1703 (1996)
                                          Hartwigsen et al., PRB 58, 3641 (1998)
                                                      Krack, TCA 114, 145 (2005)

       Gaussian exponent of the core charge distribution:              12.500000
       Electronic configuration (s p d ...):                                   1

       Parameters of the local part of the GTH pseudopotential:

                          rloc        C1          C2          C3          C4
                        0.200000   -4.178900    0.724463

  2. Atomic kind: O                                     Number of atoms:     157

     Orbital Basis Set                                        DZVP-MOLOPT-SR-GTH

       Number of orbital shell sets:                                           1
       Number of orbital shells:                                               5
       Number of primitive Cartesian functions:                                5
       Number of Cartesian basis functions:                                   14
       Number of spherical basis functions:                                   13
       Norm type:                                                              2

       Normalised Cartesian orbitals:

                        Set   Shell   Orbital            Exponent    Coefficient

                          1       1    2s               10.389228       0.396646
                                                         3.849621       0.208811
                                                         1.388401      -0.301641
                                                         0.496955      -0.274061
                                                         0.162492      -0.033677

                          1       2    3s               10.389228       0.303673
                                                         3.849621       0.240943
                                                         1.388401      -0.313066
                                                         0.496955      -0.043055
                                                         0.162492       0.213991

                          1       3    3px              10.389228      -1.530415
                                                         3.849621      -1.371928
                                                         1.388401      -0.761951
                                                         0.496955      -0.253695
                                                         0.162492      -0.035541
                          1       3    3py              10.389228      -1.530415
                                                         3.849621      -1.371928
                                                         1.388401      -0.761951
                                                         0.496955      -0.253695
                                                         0.162492      -0.035541
                          1       3    3pz              10.389228      -1.530415
                                                         3.849621      -1.371928
                                                         1.388401      -0.761951
                                                         0.496955      -0.253695
                                                         0.162492      -0.035541

                          1       4    4px              10.389228      -0.565392
                                                         3.849621      -0.038231
                                                         1.388401      -0.382373
                                                         0.496955       0.179070
                                                         0.162492       0.122714
                          1       4    4py              10.389228      -0.565392
                                                         3.849621      -0.038231
                                                         1.388401      -0.382373
                                                         0.496955       0.179070
                                                         0.162492       0.122714
                          1       4    4pz              10.389228      -0.565392
                                                         3.849621      -0.038231
                                                         1.388401      -0.382373
                                                         0.496955       0.179070
                                                         0.162492       0.122714

                          1       5    4dx2             10.389228       1.867377
                                                         3.849621       0.670994
                                                         1.388401       1.353441
                                                         0.496955       0.273538
                                                         0.162492       0.006620
                          1       5    4dxy             10.389228       3.234392
                                                         3.849621       1.162195
                                                         1.388401       2.344229
                                                         0.496955       0.473781
                                                         0.162492       0.011466
                          1       5    4dxz             10.389228       3.234392
                                                         3.849621       1.162195
                                                         1.388401       2.344229
                                                         0.496955       0.473781
                                                         0.162492       0.011466
                          1       5    4dy2             10.389228       1.867377
                                                         3.849621       0.670994
                                                         1.388401       1.353441
                                                         0.496955       0.273538
                                                         0.162492       0.006620
                          1       5    4dyz             10.389228       3.234392
                                                         3.849621       1.162195
                                                         1.388401       2.344229
                                                         0.496955       0.473781
                                                         0.162492       0.011466
                          1       5    4dz2             10.389228       1.867377
                                                         3.849621       0.670994
                                                         1.388401       1.353441
                                                         0.496955       0.273538
                                                         0.162492       0.006620

     GTH Potential information for                                    GTH-PBE-q6

       Description:                       Goedecker-Teter-Hutter pseudopotential
                                           Goedecker et al., PRB 54, 1703 (1996)
                                          Hartwigsen et al., PRB 58, 3641 (1998)
                                                      Krack, TCA 114, 145 (2005)

       Gaussian exponent of the core charge distribution:               8.360253
       Electronic configuration (s p d ...):                               2   4

       Parameters of the local part of the GTH pseudopotential:

                          rloc        C1          C2          C3          C4
                        0.244554  -16.667215    2.487311

       Parameters of the non-local part of the GTH pseudopotential:

                   l      r(l)      h(i,j,l)

                   0    0.220956   18.337458
                   1    0.211332

  3. Atomic kind: Al                                    Number of atoms:      24

     Orbital Basis Set                                        DZVP-MOLOPT-SR-GTH

       Number of orbital shell sets:                                           1
       Number of orbital shells:                                               8
       Number of primitive Cartesian functions:                                6
       Number of Cartesian basis functions:                                   31
       Number of spherical basis functions:                                   26
       Norm type:                                                              2

       Normalised Cartesian orbitals:

                        Set   Shell   Orbital            Exponent    Coefficient

                          1       1    2s                8.424366      -0.545589
                                                         4.825220      -0.832336
                                                         2.198939       0.958990
                                                         0.891661       0.416271
                                                         0.316231       0.012631
                                                         0.103474      -0.013505

                          1       2    3s                8.424366      -0.106056
                                                         4.825220      -0.104587
                                                         2.198939       0.052318
                                                         0.891661      -0.169042
                                                         0.316231       0.061854
                                                         0.103474       0.122891

                          1       3    4s                8.424366      -0.333477
                                                         4.825220      -0.289267
                                                         2.198939      -0.125861
                                                         0.891661      -1.004000
                                                         0.316231       0.780774
                                                         0.103474      -0.187846

                          1       4    3px               8.424366      -1.658234
                                                         4.825220       1.618912
                                                         2.198939       1.969078
                                                         0.891661       0.523780
                                                         0.316231       0.024574
                                                         0.103474      -0.000798
                          1       4    3py               8.424366      -1.658234
                                                         4.825220       1.618912
                                                         2.198939       1.969078
                                                         0.891661       0.523780
                                                         0.316231       0.024574
                                                         0.103474      -0.000798
                          1       4    3pz               8.424366      -1.658234
                                                         4.825220       1.618912
                                                         2.198939       1.969078
                                                         0.891661       0.523780
                                                         0.316231       0.024574
                                                         0.103474      -0.000798

                          1       5    4px               8.424366      -0.105249
                                                         4.825220      -0.126123
                                                         2.198939      -0.349657
                                                         0.891661      -0.133470
                                                         0.316231       0.170554
                                                         0.103474       0.054381
                          1       5    4py               8.424366      -0.105249
                                                         4.825220      -0.126123
                                                         2.198939      -0.349657
                                                         0.891661      -0.133470
                                                         0.316231       0.170554
                                                         0.103474       0.054381
                          1       5    4pz               8.424366      -0.105249
                                                         4.825220      -0.126123
                                                         2.198939      -0.349657
                                                         0.891661      -0.133470
                                                         0.316231       0.170554
                                                         0.103474       0.054381

                          1       6    4dx2              8.424366       7.918298
                                                         4.825220       5.112663
                                                         2.198939       2.118663
                                                         0.891661       0.465004
                                                         0.316231       0.065856
                                                         0.103474       0.002769
                          1       6    4dxy              8.424366      13.714895
                                                         4.825220       8.855393
                                                         2.198939       3.669632
                                                         0.891661       0.805411
                                                         0.316231       0.114066
                                                         0.103474       0.004796
                          1       6    4dxz              8.424366      13.714895
                                                         4.825220       8.855393
                                                         2.198939       3.669632
                                                         0.891661       0.805411
                                                         0.316231       0.114066
                                                         0.103474       0.004796
                          1       6    4dy2              8.424366       7.918298
                                                         4.825220       5.112663
                                                         2.198939       2.118663
                                                         0.891661       0.465004
                                                         0.316231       0.065856
                                                         0.103474       0.002769
                          1       6    4dyz              8.424366      13.714895
                                                         4.825220       8.855393
                                                         2.198939       3.669632
                                                         0.891661       0.805411
                                                         0.316231       0.114066
                                                         0.103474       0.004796
                          1       6    4dz2              8.424366       7.918298
                                                         4.825220       5.112663
                                                         2.198939       2.118663
                                                         0.891661       0.465004
                                                         0.316231       0.065856
                                                         0.103474       0.002769

                          1       7    5dx2              8.424366      -4.223614
                                                         4.825220      -1.970584
                                                         2.198939      -1.543490
                                                         0.891661      -0.041381
                                                         0.316231       0.082821
                                                         0.103474       0.021964
                          1       7    5dxy              8.424366      -7.315513
                                                         4.825220      -3.413151
                                                         2.198939      -2.673404
                                                         0.891661      -0.071673
                                                         0.316231       0.143450
                                                         0.103474       0.038042
                          1       7    5dxz              8.424366      -7.315513
                                                         4.825220      -3.413151
                                                         2.198939      -2.673404
                                                         0.891661      -0.071673
                                                         0.316231       0.143450
                                                         0.103474       0.038042
                          1       7    5dy2              8.424366      -4.223614
                                                         4.825220      -1.970584
                                                         2.198939      -1.543490
                                                         0.891661      -0.041381
                                                         0.316231       0.082821
                                                         0.103474       0.021964
                          1       7    5dyz              8.424366      -7.315513
                                                         4.825220      -3.413151
                                                         2.198939      -2.673404
                                                         0.891661      -0.071673
                                                         0.316231       0.143450
                                                         0.103474       0.038042
                          1       7    5dz2              8.424366      -4.223614
                                                         4.825220      -1.970584
                                                         2.198939      -1.543490
                                                         0.891661      -0.041381
                                                         0.316231       0.082821
                                                         0.103474       0.021964

                          1       8    5fx3              8.424366      -1.141046
                                                         4.825220       0.521593
                                                         2.198939      -0.648365
                                                         0.891661      -0.481511
                                                         0.316231      -0.065954
                                                         0.103474       0.007610
                          1       8    5fx2y             8.424366      -2.551456
                                                         4.825220       1.166317
                                                         2.198939      -1.449789
                                                         0.891661      -1.076690
                                                         0.316231      -0.147477
                                                         0.103474       0.017017
                          1       8    5fx2z             8.424366      -2.551456
                                                         4.825220       1.166317
                                                         2.198939      -1.449789
                                                         0.891661      -1.076690
                                                         0.316231      -0.147477
                                                         0.103474       0.017017
                          1       8    5fxy2             8.424366      -2.551456
                                                         4.825220       1.166317
                                                         2.198939      -1.449789
                                                         0.891661      -1.076690
                                                         0.316231      -0.147477
                                                         0.103474       0.017017
                          1       8    5fxyz             8.424366      -4.419252
                                                         4.825220       2.020120
                                                         2.198939      -2.511108
                                                         0.891661      -1.864883
                                                         0.316231      -0.255438
                                                         0.103474       0.029474
                          1       8    5fxz2             8.424366      -2.551456
                                                         4.825220       1.166317
                                                         2.198939      -1.449789
                                                         0.891661      -1.076690
                                                         0.316231      -0.147477
                                                         0.103474       0.017017
                          1       8    5fy3              8.424366      -1.141046
                                                         4.825220       0.521593
                                                         2.198939      -0.648365
                                                         0.891661      -0.481511
                                                         0.316231      -0.065954
                                                         0.103474       0.007610
                          1       8    5fy2z             8.424366      -2.551456
                                                         4.825220       1.166317
                                                         2.198939      -1.449789
                                                         0.891661      -1.076690
                                                         0.316231      -0.147477
                                                         0.103474       0.017017
                          1       8    5fyz2             8.424366      -2.551456
                                                         4.825220       1.166317
                                                         2.198939      -1.449789
                                                         0.891661      -1.076690
                                                         0.316231      -0.147477
                                                         0.103474       0.017017
                          1       8    5fz3              8.424366      -1.141046
                                                         4.825220       0.521593
                                                         2.198939      -0.648365
                                                         0.891661      -0.481511
                                                         0.316231      -0.065954
                                                         0.103474       0.007610

     GTH Potential information for                                   GTH-PBE-q16

       Description:                       Goedecker-Teter-Hutter pseudopotential
                                           Goedecker et al., PRB 54, 1703 (1996)
                                          Hartwigsen et al., PRB 58, 3641 (1998)
                                                      Krack, TCA 114, 145 (2005)

       Gaussian exponent of the core charge distribution:               3.858025
       Electronic configuration (s p d ...):                           4   6   6

       Parameters of the local part of the GTH pseudopotential:

                          rloc        C1          C2          C3          C4
                        0.360000    6.756789   -0.228833

       Parameters of the non-local part of the GTH pseudopotential:

                   l      r(l)      h(i,j,l)

                   0    0.278263    0.629506    7.913132
                                    7.913132  -10.215810
                   1    0.251383   -7.932133    7.697079
                                    7.697079   -9.107307
                   2    0.222856  -12.385799

     A DFT+U correction is applied to atoms of this atomic kind:
       Angular quantum momentum number L:                                      2
       U(eff) = (U - J) value in [eV]:                                     3.000

  4. Atomic kind: Fe                                    Number of atoms:      24

     Orbital Basis Set                                        DZVP-MOLOPT-SR-GTH

       Number of orbital shell sets:                                           1
       Number of orbital shells:                                               8
       Number of primitive Cartesian functions:                                6
       Number of Cartesian basis functions:                                   31
       Number of spherical basis functions:                                   26
       Norm type:                                                              2

       Normalised Cartesian orbitals:

                        Set   Shell   Orbital            Exponent    Coefficient

                          1       1    2s                8.424366      -0.545589
                                                         4.825220      -0.832336
                                                         2.198939       0.958990
                                                         0.891661       0.416271
                                                         0.316231       0.012631
                                                         0.103474      -0.013505

                          1       2    3s                8.424366      -0.106056
                                                         4.825220      -0.104587
                                                         2.198939       0.052318
                                                         0.891661      -0.169042
                                                         0.316231       0.061854
                                                         0.103474       0.122891

                          1       3    4s                8.424366      -0.333477
                                                         4.825220      -0.289267
                                                         2.198939      -0.125861
                                                         0.891661      -1.004000
                                                         0.316231       0.780774
                                                         0.103474      -0.187846

                          1       4    3px               8.424366      -1.658234
                                                         4.825220       1.618912
                                                         2.198939       1.969078
                                                         0.891661       0.523780
                                                         0.316231       0.024574
                                                         0.103474      -0.000798
                          1       4    3py               8.424366      -1.658234
                                                         4.825220       1.618912
                                                         2.198939       1.969078
                                                         0.891661       0.523780
                                                         0.316231       0.024574
                                                         0.103474      -0.000798
                          1       4    3pz               8.424366      -1.658234
                                                         4.825220       1.618912
                                                         2.198939       1.969078
                                                         0.891661       0.523780
                                                         0.316231       0.024574
                                                         0.103474      -0.000798

                          1       5    4px               8.424366      -0.105249
                                                         4.825220      -0.126123
                                                         2.198939      -0.349657
                                                         0.891661      -0.133470
                                                         0.316231       0.170554
                                                         0.103474       0.054381
                          1       5    4py               8.424366      -0.105249
                                                         4.825220      -0.126123
                                                         2.198939      -0.349657
                                                         0.891661      -0.133470
                                                         0.316231       0.170554
                                                         0.103474       0.054381
                          1       5    4pz               8.424366      -0.105249
                                                         4.825220      -0.126123
                                                         2.198939      -0.349657
                                                         0.891661      -0.133470
                                                         0.316231       0.170554
                                                         0.103474       0.054381

                          1       6    4dx2              8.424366       7.918298
                                                         4.825220       5.112663
                                                         2.198939       2.118663
                                                         0.891661       0.465004
                                                         0.316231       0.065856
                                                         0.103474       0.002769
                          1       6    4dxy              8.424366      13.714895
                                                         4.825220       8.855393
                                                         2.198939       3.669632
                                                         0.891661       0.805411
                                                         0.316231       0.114066
                                                         0.103474       0.004796
                          1       6    4dxz              8.424366      13.714895
                                                         4.825220       8.855393
                                                         2.198939       3.669632
                                                         0.891661       0.805411
                                                         0.316231       0.114066
                                                         0.103474       0.004796
                          1       6    4dy2              8.424366       7.918298
                                                         4.825220       5.112663
                                                         2.198939       2.118663
                                                         0.891661       0.465004
                                                         0.316231       0.065856
                                                         0.103474       0.002769
                          1       6    4dyz              8.424366      13.714895
                                                         4.825220       8.855393
                                                         2.198939       3.669632
                                                         0.891661       0.805411
                                                         0.316231       0.114066
                                                         0.103474       0.004796
                          1       6    4dz2              8.424366       7.918298
                                                         4.825220       5.112663
                                                         2.198939       2.118663
                                                         0.891661       0.465004
                                                         0.316231       0.065856
                                                         0.103474       0.002769

                          1       7    5dx2              8.424366      -4.223614
                                                         4.825220      -1.970584
                                                         2.198939      -1.543490
                                                         0.891661      -0.041381
                                                         0.316231       0.082821
                                                         0.103474       0.021964
                          1       7    5dxy              8.424366      -7.315513
                                                         4.825220      -3.413151
                                                         2.198939      -2.673404
                                                         0.891661      -0.071673
                                                         0.316231       0.143450
                                                         0.103474       0.038042
                          1       7    5dxz              8.424366      -7.315513
                                                         4.825220      -3.413151
                                                         2.198939      -2.673404
                                                         0.891661      -0.071673
                                                         0.316231       0.143450
                                                         0.103474       0.038042
                          1       7    5dy2              8.424366      -4.223614
                                                         4.825220      -1.970584
                                                         2.198939      -1.543490
                                                         0.891661      -0.041381
                                                         0.316231       0.082821
                                                         0.103474       0.021964
                          1       7    5dyz              8.424366      -7.315513
                                                         4.825220      -3.413151
                                                         2.198939      -2.673404
                                                         0.891661      -0.071673
                                                         0.316231       0.143450
                                                         0.103474       0.038042
                          1       7    5dz2              8.424366      -4.223614
                                                         4.825220      -1.970584
                                                         2.198939      -1.543490
                                                         0.891661      -0.041381
                                                         0.316231       0.082821
                                                         0.103474       0.021964

                          1       8    5fx3              8.424366      -1.141046
                                                         4.825220       0.521593
                                                         2.198939      -0.648365
                                                         0.891661      -0.481511
                                                         0.316231      -0.065954
                                                         0.103474       0.007610
                          1       8    5fx2y             8.424366      -2.551456
                                                         4.825220       1.166317
                                                         2.198939      -1.449789
                                                         0.891661      -1.076690
                                                         0.316231      -0.147477
                                                         0.103474       0.017017
                          1       8    5fx2z             8.424366      -2.551456
                                                         4.825220       1.166317
                                                         2.198939      -1.449789
                                                         0.891661      -1.076690
                                                         0.316231      -0.147477
                                                         0.103474       0.017017
                          1       8    5fxy2             8.424366      -2.551456
                                                         4.825220       1.166317
                                                         2.198939      -1.449789
                                                         0.891661      -1.076690
                                                         0.316231      -0.147477
                                                         0.103474       0.017017
                          1       8    5fxyz             8.424366      -4.419252
                                                         4.825220       2.020120
                                                         2.198939      -2.511108
                                                         0.891661      -1.864883
                                                         0.316231      -0.255438
                                                         0.103474       0.029474
                          1       8    5fxz2             8.424366      -2.551456
                                                         4.825220       1.166317
                                                         2.198939      -1.449789
                                                         0.891661      -1.076690
                                                         0.316231      -0.147477
                                                         0.103474       0.017017
                          1       8    5fy3              8.424366      -1.141046
                                                         4.825220       0.521593
                                                         2.198939      -0.648365
                                                         0.891661      -0.481511
                                                         0.316231      -0.065954
                                                         0.103474       0.007610
                          1       8    5fy2z             8.424366      -2.551456
                                                         4.825220       1.166317
                                                         2.198939      -1.449789
                                                         0.891661      -1.076690
                                                         0.316231      -0.147477
                                                         0.103474       0.017017
                          1       8    5fyz2             8.424366      -2.551456
                                                         4.825220       1.166317
                                                         2.198939      -1.449789
                                                         0.891661      -1.076690
                                                         0.316231      -0.147477
                                                         0.103474       0.017017
                          1       8    5fz3              8.424366      -1.141046
                                                         4.825220       0.521593
                                                         2.198939      -0.648365
                                                         0.891661      -0.481511
                                                         0.316231      -0.065954
                                                         0.103474       0.007610

     GTH Potential information for                                   GTH-PBE-q16

       Description:                       Goedecker-Teter-Hutter pseudopotential
                                           Goedecker et al., PRB 54, 1703 (1996)
                                          Hartwigsen et al., PRB 58, 3641 (1998)
                                                      Krack, TCA 114, 145 (2005)

       Gaussian exponent of the core charge distribution:               3.858025
       Electronic configuration (s p d ...):                           4   6   6

       Parameters of the local part of the GTH pseudopotential:

                          rloc        C1          C2          C3          C4
                        0.360000    6.756789   -0.228833

       Parameters of the non-local part of the GTH pseudopotential:

                   l      r(l)      h(i,j,l)

                   0    0.278263    0.629506    7.913132
                                    7.913132  -10.215810
                   1    0.251383   -7.932133    7.697079
                                    7.697079   -9.107307
                   2    0.222856  -12.385799

     A DFT+U correction is applied to atoms of this atomic kind:
       Angular quantum momentum number L:                                      2
       U(eff) = (U - J) value in [eV]:                                     3.000


 MOLECULE KIND INFORMATION


 All atoms are their own molecule, skipping detailed information


 TOTAL NUMBERS AND MAXIMUM NUMBERS

  Total number of            - Atomic kinds:                                   4
                             - Atoms:                                        375
                             - Shell sets:                                   375
                             - Shells:                                      1679
                             - Primitive Cartesian functions:               1923
                             - Cartesian basis functions:                   4536
                             - Spherical basis functions:                   4139

  Maximum angular momentum of- Orbital basis functions:                        3
                             - Local part of the GTH pseudopotential:          2
                             - Non-local part of the GTH pseudopotential:      3


 MODULE QUICKSTEP:  ATOMIC COORDINATES IN angstrom

  Atom  Kind  Element       X           Y           Z          Z(eff)       Mass

       1     1 H    1    3.813890    4.286710   39.517700      1.00       1.0079
       2     1 H    1    1.172560    3.835860   25.141200      1.00       1.0079
       3     1 H    1    4.544620    6.073930   22.453700      1.00       1.0079
       4     1 H    1    7.954260    3.327520   22.592400      1.00       1.0079
       5     1 H    1    8.459300    8.073270   23.194600      1.00       1.0079
       6     1 H    1    6.482330    8.100810   26.232600      1.00       1.0079
       7     1 H    1    7.353110    1.984960   23.059000      1.00       1.0079
       8     1 H    1    1.926440    8.597380   22.421100      1.00       1.0079
       9     1 H    1    7.609030    5.819320   22.360600      1.00       1.0079
      10     1 H    1    2.284620    0.405272   20.979300      1.00       1.0079
      11     1 H    1    9.885360    4.332900   18.204000      1.00       1.0079
      12     1 H    1    6.240690    4.976150   22.495600      1.00       1.0079
      13     1 H    1    1.110150    5.725280   24.133400      1.00       1.0079
      14     1 H    1    0.307149    3.040130   19.055900      1.00       1.0079
      15     1 H    1    0.474581    1.585190   21.144100      1.00       1.0079
      16     1 H    1    9.062290    1.990910   21.251500      1.00       1.0079
      17     1 H    1    6.097120    0.287679   21.906500      1.00       1.0079
      18     1 H    1    9.297130    6.797980   23.475900      1.00       1.0079
      19     1 H    1    8.163140    7.926450   26.667900      1.00       1.0079
      20     1 H    1    3.633540    6.374950   27.562100      1.00       1.0079
      21     1 H    1    0.468430    0.640511   24.865200      1.00       1.0079
      22     1 H    1    0.855196    6.279020   21.721400      1.00       1.0079
      23     1 H    1    0.090173    6.646690   27.255200      1.00       1.0079
      24     1 H    1    0.755448    4.591400   28.399300      1.00       1.0079
      25     1 H    1    4.952270    5.550140   27.792200      1.00       1.0079
      26     1 H    1    2.778830    4.297850   25.648100      1.00       1.0079
      27     1 H    1    7.335290    4.757040   20.419500      1.00       1.0079
      28     1 H    1    0.100843    7.957890   28.052200      1.00       1.0079
      29     1 H    1    4.457620    7.683500   25.407100      1.00       1.0079
      30     1 H    1    1.315550    4.835150   26.983700      1.00       1.0079
      31     1 H    1    5.577740    8.187060   24.270700      1.00       1.0079
      32     1 H    1    5.110450    6.245790   23.943500      1.00       1.0079
      33     1 H    1    6.597260    4.140570   19.199900      1.00       1.0079
      34     1 H    1    0.524703    5.344260   20.494300      1.00       1.0079
      35     1 H    1    7.329310    8.251300   19.907200      1.00       1.0079
      36     1 H    1    5.851780    7.608760   20.035700      1.00       1.0079
      37     1 H    1    3.041110    1.167770   18.986700      1.00       1.0079
      38     1 H    1    1.915550    4.149920   17.785300      1.00       1.0079
      39     1 H    1    8.223990    5.298890   17.966800      1.00       1.0079
      40     1 H    1    8.199630    1.447110   16.385900      1.00       1.0079
      41     1 H    1    5.660430    7.125020   17.579400      1.00       1.0079
      42     1 H    1    3.525340    7.139420   17.754700      1.00       1.0079
      43     1 H    1    3.474850    3.197480   17.823800      1.00       1.0079
      44     1 H    1    3.141990    5.625830   18.010800      1.00       1.0079
      45     1 H    1    1.434140    0.832588   17.646200      1.00       1.0079
      46     1 H    1    7.636620    7.495390   16.842300      1.00       1.0079
      47     1 H    1    1.350960    6.629110   17.593100      1.00       1.0079
      48     1 H    1    2.583270    8.259970   15.503100      1.00       1.0079
      49     1 H    1    5.505600    3.899390   16.045500      1.00       1.0079
      50     1 H    1    9.212400    2.268200   17.046100      1.00       1.0079
      51     1 H    1    3.516070    1.201040   15.183200      1.00       1.0079
      52     1 H    1    3.414580    4.322340   20.693000      1.00       1.0079
      53     1 H    1    6.094500    5.101420   17.086500      1.00       1.0079
      54     1 H    1    1.400070    1.570820   16.324500      1.00       1.0079
      55     1 H    1    6.721040    6.878000   36.789800      1.00       1.0079
      56     1 H    1    9.406060    7.321010   20.128100      1.00       1.0079
      57     1 H    1    3.114920    1.474570   22.851200      1.00       1.0079
      58     1 H    1    2.833840    8.352490   19.175300      1.00       1.0079
      59     1 H    1    5.105000    1.385060   22.664100      1.00       1.0079
      60     1 H    1    5.647530    5.595250   20.280400      1.00       1.0079
      61     1 H    1    4.190980    6.238380   19.795600      1.00       1.0079
      62     1 H    1    0.931877    7.215160   24.050500      1.00       1.0079
      63     1 H    1    7.109190    2.088280   18.632200      1.00       1.0079
      64     1 H    1    9.418740    0.317407   19.974600      1.00       1.0079
      65     1 H    1    3.345250    2.937200   22.639100      1.00       1.0079
      66     1 H    1    6.184100    1.471200   19.706000      1.00       1.0079
      67     1 H    1    8.795900    8.055970   17.911500      1.00       1.0079
      68     1 H    1    4.082860    0.462626   17.221600      1.00       1.0079
      69     1 H    1    2.610080    5.113950   21.762200      1.00       1.0079
      70     1 H    1    1.245900    6.050660   16.123600      1.00       1.0079
      71     1 H    1    4.021890    2.844730   24.866100      1.00       1.0079
      72     1 H    1    6.209830    5.838100   15.228600      1.00       1.0079
      73     1 H    1    5.039210    3.700940   25.695700      1.00       1.0079
      74     1 H    1    7.087120    5.516260   29.020100      1.00       1.0079
      75     1 H    1    2.242070    7.094160   32.328100      1.00       1.0079
      76     1 H    1    5.217960    4.479280   32.304800      1.00       1.0079
      77     1 H    1    7.411410    1.336050   36.604400      1.00       1.0079
      78     1 H    1    9.926720    0.850113   36.848800      1.00       1.0079
      79     1 H    1    4.583880    7.738190   33.852500      1.00       1.0079
      80     1 H    1    8.520440    8.556560   34.221300      1.00       1.0079
      81     1 H    1    7.289510    1.870060   35.075500      1.00       1.0079
      82     1 H    1    2.970750    4.440670   33.209200      1.00       1.0079
      83     1 H    1    4.946530    5.951450   32.571000      1.00       1.0079
      84     1 H    1    8.875940    6.181570   33.153200      1.00       1.0079
      85     1 H    1    2.113990    5.841150   31.223100      1.00       1.0079
      86     1 H    1    7.725770    1.659890   30.561800      1.00       1.0079
      87     1 H    1    0.180778    5.886500   32.397800      1.00       1.0079
      88     1 H    1    6.141440    7.792270   33.952200      1.00       1.0079
      89     1 H    1    1.323170    1.324240   36.547600      1.00       1.0079
      90     1 H    1    8.938040    0.654681   30.776400      1.00       1.0079
      91     1 H    1    9.516940    3.992970   36.284900      1.00       1.0079
      92     1 H    1    5.119860    1.221480   36.145900      1.00       1.0079
      93     1 H    1    0.958185    7.908000   35.781400      1.00       1.0079
      94     1 H    1    2.244720    2.515980   38.376200      1.00       1.0079
      95     1 H    1    2.698550    3.623890   37.176900      1.00       1.0079
      96     1 H    1    8.053120    8.704400   37.616400      1.00       1.0079
      97     1 H    1    4.590020    7.896920   36.734000      1.00       1.0079
      98     1 H    1    6.090650    3.299450   36.648000      1.00       1.0079
      99     1 H    1    3.113160    4.659660   35.339400      1.00       1.0079
     100     1 H    1    0.442336    7.017690   34.731000      1.00       1.0079
     101     1 H    1    2.349130    5.894160   35.815000      1.00       1.0079
     102     1 H    1    3.628950    1.499670   36.377000      1.00       1.0079
     103     1 H    1    5.723730    3.585820   38.158900      1.00       1.0079
     104     1 H    1    7.996920    5.920030   36.953200      1.00       1.0079
     105     1 H    1    8.098370    3.794620   36.944200      1.00       1.0079
     106     1 H    1    7.948450    7.395060   35.098900      1.00       1.0079
     107     1 H    1    4.474060    6.389860   36.348600      1.00       1.0079
     108     1 H    1    2.891030    2.954070   33.471900      1.00       1.0079
     109     1 H    1    1.135720    3.618010   34.501400      1.00       1.0079
     110     1 H    1    9.948680    4.286060   33.867600      1.00       1.0079
     111     1 H    1    7.590030    1.342010   26.751600      1.00       1.0079
     112     1 H    1    3.146120    1.517560   28.341600      1.00       1.0079
     113     1 H    1    3.642460    5.103170   30.755800      1.00       1.0079
     114     1 H    1    3.638660    1.638630   31.895200      1.00       1.0079
     115     1 H    1    5.336360    0.322412   32.462500      1.00       1.0079
     116     1 H    1    9.335520    2.219770   25.245700      1.00       1.0079
     117     1 H    1    7.258970    2.956360   26.356300      1.00       1.0079
     118     1 H    1    9.627010    2.293130   23.793100      1.00       1.0079
     119     1 H    1    6.809700    6.718440   27.952800      1.00       1.0079
     120     1 H    1    3.645890    0.039823   27.160000      1.00       1.0079
     121     1 H    1    0.516274    8.046090   26.000700      1.00       1.0079
     122     1 H    1    5.469340    0.642433   30.880300      1.00       1.0079
     123     1 H    1    6.894120    5.137790   26.424900      1.00       1.0079
     124     1 H    1    6.991080    4.878420   24.900100      1.00       1.0079
     125     1 H    1    4.125060    2.134940   27.184800      1.00       1.0079
     126     1 H    1    3.336990    5.129990   29.166800      1.00       1.0079
     127     1 H    1    2.420360    3.247320   29.805800      1.00       1.0079
     128     1 H    1    2.181980    1.874140   31.370300      1.00       1.0079
     129     1 H    1    7.364040    3.708860   32.698300      1.00       1.0079
     130     1 H    1    6.672440    0.237711   28.723000      1.00       1.0079
     131     1 H    1    6.339870    2.733680   32.020100      1.00       1.0079
     132     1 H    1    8.626820    5.419750   31.025800      1.00       1.0079
     133     1 H    1    9.392450    7.147370   30.038100      1.00       1.0079
     134     1 H    1    2.827450    0.141719   33.166600      1.00       1.0079
     135     1 H    1    2.224620    7.694520   34.253300      1.00       1.0079
     136     1 H    1    9.204930    2.402450   33.996900      1.00       1.0079
     137     1 H    1    9.090470    4.639600   29.658600      1.00       1.0079
     138     1 H    1    5.502610    1.199250   28.649900      1.00       1.0079
     139     1 H    1    0.713956    7.818330   30.459800      1.00       1.0079
     140     1 H    1    9.229970    2.429020   29.578600      1.00       1.0079
     141     1 H    1    8.568070    1.505800   32.789400      1.00       1.0079
     142     1 H    1    1.097490    2.301840   29.332700      1.00       1.0079
     143     1 H    1    8.962500    2.834450   28.052900      1.00       1.0079
     144     1 H    1    2.513370    8.408430   26.237000      1.00       1.0079
     145     1 H    1    9.331720    5.886820   16.837300      1.00       1.0079
     146     1 H    1    4.930130    2.579470   18.116000      1.00       1.0079
     147     1 H    1    8.931380    1.101270   38.873300      1.00       1.0079
     148     1 H    1    6.861740    8.034610    0.942812      1.00       1.0079
     149     1 H    1    4.268410    3.344080    1.016860      1.00       1.0079
     150     1 H    1    8.553010    3.364480    0.349144      1.00       1.0079
     151     1 H    1    5.442340    0.859584    1.932080      1.00       1.0079
     152     1 H    1    2.593760    5.353500    1.066110      1.00       1.0079
     153     1 H    1    7.518000    6.410100    0.148727      1.00       1.0079
     154     1 H    1    0.494918    0.860456    1.884590      1.00       1.0079
     155     1 H    1    6.584220    3.539310    1.836050      1.00       1.0079
     156     1 H    1    9.612580    7.593860    0.520205      1.00       1.0079
     157     1 H    1    4.301520    7.773760    0.338472      1.00       1.0079
     158     1 H    1    1.730010    2.961390    0.429534      1.00       1.0079
     159     1 H    1    9.940670    6.895960   38.705600      1.00       1.0079
     160     1 H    1    4.868160    6.670840   38.808000      1.00       1.0079
     161     1 H    1    0.074145    1.740710    0.321434      1.00       1.0079
     162     1 H    1    1.936430    5.985030   39.331100      1.00       1.0079
     163     1 H    1    5.966190    0.405263    0.079378      1.00       1.0079
     164     1 H    1    1.396240    7.692860    1.877250      1.00       1.0079
     165     1 H    1    7.749310    5.029470    0.624909      1.00       1.0079
     166     1 H    1    3.696620    0.901828   39.061500      1.00       1.0079
     167     1 H    1    1.734630    8.398260   38.052100      1.00       1.0079
     168     1 H    1    9.276080    4.311520   38.706100      1.00       1.0079
     169     1 H    1    6.974630    2.551640   39.420500      1.00       1.0079
     170     1 H    1    2.648160    7.184050   37.730100      1.00       1.0079
     171     2 O    8    3.767880    2.635270    2.616550      6.00      15.9994
     172     2 O    8    9.598860    3.021580   28.859600      6.00      15.9994
     173     2 O    8    6.158400    7.088940    2.550760      6.00      15.9994
     174     2 O    8    8.646670    2.743580    2.779470      6.00      15.9994
     175     2 O    8    6.059000    1.179670    2.642710      6.00      15.9994
     176     2 O    8    1.194810    3.871110    2.570070      6.00      15.9994
     177     2 O    8    7.966430    2.286330   26.780300      6.00      15.9994
     178     2 O    8    8.437720    1.714070   33.784200      6.00      15.9994
     179     2 O    8    2.042900    2.295040   29.715600      6.00      15.9994
     180     2 O    8    1.116190    6.903930    2.469090      6.00      15.9994
     181     2 O    8    2.723560    1.743990   32.235700      6.00      15.9994
     182     2 O    8    2.917990    4.823600   30.058200      6.00      15.9994
     183     2 O    8    9.881780    8.023300   29.989000      6.00      15.9994
     184     2 O    8    9.419670    6.978380    5.036170      6.00      15.9994
     185     2 O    8    6.926270    2.770360    5.036520      6.00      15.9994
     186     2 O    8    9.769060    7.625920   27.220800      6.00      15.9994
     187     2 O    8    3.950240    5.441270   27.750900      6.00      15.9994
     188     2 O    8    0.385226    6.212490   20.835800      6.00      15.9994
     189     2 O    8    1.955510    2.274990   14.715500      6.00      15.9994
     190     2 O    8    0.931785    8.456520   25.207700      6.00      15.9994
     191     2 O    8    6.726220    4.471500   25.737500      6.00      15.9994
     192     2 O    8    1.922890    8.241480    5.068950      6.00      15.9994
     193     2 O    8    7.158480    8.548540    4.876090      6.00      15.9994
     194     2 O    8    4.145730    3.307040   25.757900      6.00      15.9994
     195     2 O    8    4.519350    4.044530    4.874400      6.00      15.9994
     196     2 O    8    4.300540    7.053490    4.937360      6.00      15.9994
     197     2 O    8    9.475860    3.942340    4.900010      6.00      15.9994
     198     2 O    8    3.305980    7.953710   26.666200      6.00      15.9994
     199     2 O    8    2.045910    5.430170    4.818320      6.00      15.9994
     200     2 O    8    7.027140    5.768870    4.812370      6.00      15.9994
     201     2 O    8    4.608280    1.290550    5.009980      6.00      15.9994
     202     2 O    8    9.641920    1.384450    5.006730      6.00      15.9994
     203     2 O    8    0.062400    2.301180   24.698300      6.00      15.9994
     204     2 O    8    2.005860    2.493090    4.862530      6.00      15.9994
     205     2 O    8    6.092300    0.814523   29.351100      6.00      15.9994
     206     2 O    8    5.389860    1.021960   31.756400      6.00      15.9994
     207     2 O    8    3.972560    1.399780   27.825700      6.00      15.9994
     208     2 O    8    6.582520    5.819750   28.211700      6.00      15.9994
     209     2 O    8    8.752450    8.484710    2.656070      6.00      15.9994
     210     2 O    8    8.587490    1.516530   30.969200      6.00      15.9994
     211     2 O    8    3.553810    8.330270    2.531980      6.00      15.9994
     212     2 O    8    6.766180    1.616660   35.838000      6.00      15.9994
     213     2 O    8    1.945350    2.066550    0.201517      6.00      15.9994
     214     2 O    8    9.621280    6.711070    0.080235      6.00      15.9994
     215     2 O    8    8.962750    4.316970   37.030600      6.00      15.9994
     216     2 O    8    9.338280    4.000150    0.146931      6.00      15.9994
     217     2 O    8    4.687800    3.864420    0.284530      6.00      15.9994
     218     2 O    8    6.891600    0.050736    0.213959      6.00      15.9994
     219     2 O    8    8.402330    7.569880   34.195300      6.00      15.9994
     220     2 O    8    4.217570    0.767451   36.158100      6.00      15.9994
     221     2 O    8    3.107280    5.348480   36.092200      6.00      15.9994
     222     2 O    8    1.167990    7.046560   35.350600      6.00      15.9994
     223     2 O    8    2.633760    2.626310   37.339600      6.00      15.9994
     224     2 O    8    7.686220    6.880520   36.610700      6.00      15.9994
     225     2 O    8    6.212590    3.903150   37.409000      6.00      15.9994
     226     2 O    8    8.447920    0.918609   37.668700      6.00      15.9994
     227     2 O    8    4.845850    6.999720   37.038800      6.00      15.9994
     228     2 O    8    2.014550    7.521390   38.400600      6.00      15.9994
     229     2 O    8    1.909910    5.195900    0.376058      6.00      15.9994
     230     2 O    8    4.403240    6.724640    0.193582      6.00      15.9994
     231     2 O    8    7.284150    2.676830    0.742847      6.00      15.9994
     232     2 O    8    3.650140    5.341980    2.431810      6.00      15.9994
     233     2 O    8    1.124280    1.001920    2.632070      6.00      15.9994
     234     2 O    8    8.846390    5.501390    2.704410      6.00      15.9994
     235     2 O    8    2.858200    7.983930   33.551300      6.00      15.9994
[...]
 flops     5 x    13 x    64         121880478720       0.0%    100.0%      0.0%
 flops    13 x     5 x    64         122261468160       0.0%    100.0%      0.0%
 flops   689 x    64 x   348         122272210944       0.0%    100.0%      0.0%
 flops   696 x    64 x   348         123514454016       0.0%    100.0%      0.0%
 flops   160 x    76 x   348         132028416000       0.0%    100.0%      0.0%
 flops   140 x    96 x   348         145926144000       0.0%    100.0%      0.0%
 flops     5 x    13 x    96         152350598400       0.0%    100.0%      0.0%
 flops    13 x     5 x    96         152826835200       0.0%    100.0%      0.0%
 flops   689 x    96 x   348         152840263680       0.0%    100.0%      0.0%
 flops   696 x    96 x   348         154393067520       0.0%    100.0%      0.0%
 flops   160 x    64 x   338         161980416000       0.0%    100.0%      0.0%
 flops   140 x    64 x   343         172595404800       0.0%    100.0%      0.0%
 flops   689 x    64 x   343         180773139456       0.0%    100.0%      0.0%
 flops   696 x    64 x   343         182609731584       0.0%    100.0%      0.0%
 flops   160 x    76 x   343         195197184000       0.0%    100.0%      0.0%
 flops    26 x    26 x    64         198376169472       0.0%    100.0%      0.0%
 flops   160 x    96 x   338         202475520000       0.0%    100.0%      0.0%
 flops   140 x    96 x   343         215744256000       0.0%    100.0%      0.0%
 flops    26 x    13 x    64         215927682048       0.0%    100.0%      0.0%
 flops    13 x    26 x    64         216010229760       0.0%    100.0%      0.0%
 flops   689 x    64 x    64         220669083648       0.0%    100.0%      0.0%
 flops   696 x    64 x    64         222911004672       0.0%    100.0%      0.0%
 flops   689 x    96 x   343         225966424320       0.0%    100.0%      0.0%
 flops   696 x    96 x   343         228262164480       0.0%    100.0%      0.0%
 flops   686 x    64 x   348         243479642112       0.0%    100.0%      0.0%
 flops   691 x    64 x   348         245254275072       0.0%    100.0%      0.0%
 flops    26 x    26 x    96         247970211840       0.0%    100.0%      0.0%
 flops    26 x    13 x    96         269909602560       0.0%    100.0%      0.0%
 flops    13 x    26 x    96         270012787200       0.0%    100.0%      0.0%
 flops    13 x    13 x    64         271046450688       0.0%    100.0%      0.0%
 flops   689 x    96 x    64         275836354560       0.0%    100.0%      0.0%
 flops   689 x    64 x    96         275836354560       0.0%    100.0%      0.0%
 flops   696 x    64 x    96         278638755840       0.0%    100.0%      0.0%
 flops   696 x    96 x    64         278638755840       0.0%    100.0%      0.0%
 flops   686 x    96 x   348         304349552640       0.0%    100.0%      0.0%
 flops   691 x    96 x   348         306567843840       0.0%    100.0%      0.0%
 flops    13 x    13 x    96         338808063360       0.0%    100.0%      0.0%
 flops   689 x    96 x    96         344795443200       0.0%    100.0%      0.0%
 flops   696 x    96 x    96         348298444800       0.0%    100.0%      0.0%
 flops   686 x    64 x   343         359972057088       0.0%    100.0%      0.0%
 flops   691 x    64 x   343         362595760128       0.0%    100.0%      0.0%
 flops   160 x    64 x    64         387868262400       0.0%    100.0%      0.0%
 flops   686 x    64 x    64         439416520704       0.0%    100.0%      0.0%
 flops   691 x    64 x    64         442619265024       0.0%    100.0%      0.0%
 flops   686 x    96 x   343         449965071360       0.0%    100.0%      0.0%
 flops   691 x    96 x   343         453244700160       0.0%    100.0%      0.0%
 flops   160 x    96 x    64         484835328000       0.0%    100.0%      0.0%
 flops   160 x    64 x    96         484835328000       0.0%    100.0%      0.0%
 flops     5 x    32 x     5         516127987200       0.0%    100.0%      0.0%
 flops   686 x    64 x    96         549270650880       0.0%    100.0%      0.0%
 flops   686 x    96 x    64         549270650880       0.0%    100.0%      0.0%
 flops   691 x    64 x    96         553274081280       0.0%    100.0%      0.0%
 flops   691 x    96 x    64         553274081280       0.0%    100.0%      0.0%
 flops    26 x    32 x     5         558522182400       0.0%    100.0%      0.0%
 flops     5 x    32 x    26         558522182400       0.0%    100.0%      0.0%
 flops   160 x    96 x    96         606044160000       0.0%    100.0%      0.0%
 flops   160 x    64 x   348         667090944000       0.0%    100.0%      0.0%
 flops   686 x    96 x    96         686588313600       0.0%    100.0%      0.0%
 flops   691 x    96 x    96         691592601600       0.0%    100.0%      0.0%
 flops   160 x    96 x   348         833863680000       0.0%    100.0%      0.0%
 flops     5 x    32 x    13         906704664320       0.0%    100.0%      0.0%
 flops    13 x    32 x     5         906704664320       0.0%    100.0%      0.0%
 flops   160 x    64 x   343         986259456000       0.0%    100.0%      0.0%
 flops   160 x    96 x   343        1232824320000       0.0%    100.0%      0.0%
 flops    26 x    32 x    26        1472032679936       0.0%    100.0%      0.0%
 flops    26 x    32 x    13        1616607318144       0.0%    100.0%      0.0%
 flops    13 x    32 x    26        1616607318144       0.0%    100.0%      0.0%
 flops    13 x    32 x    13        1979967301312       0.0%    100.0%      0.0%
 flops inhomo. stacks                939884521680     100.0%      0.0%      0.0%
 flops total                        35.421232E+12       2.7%     97.3%      0.0%
 flops max/rank                    603.094055E+09       2.7%     97.3%      0.0%
 matmuls inhomo. stacks                     71832     100.0%      0.0%      0.0%
 matmuls total                         1478362206       0.0%    100.0%      0.0%
 number of processed stacks              10067589       0.7%     99.3%      0.0%
 average stack size                                     1.0     147.8       0.0
 marketing flops                    48.916775E+12
 -------------------------------------------------------------------------------
 # multiplications                           4545
 max memory usage/rank             348.540928E+06
 # max total images/rank                        2
 # max 3D layers                                1
 # MPI messages exchanged                 6872040
 MPI messages size (bytes):
  total size                         1.992731E+12
  min size                           0.000000E+00
  max size                           1.954368E+06
  average size                     289.976562E+03
 MPI breakdown and total messages size (bytes):
             size <=      128               17376                        0
       128 < size <=     8192                   0                        0
      8192 < size <=    32768              493320              16158929920
     32768 < size <=   131072             2780568             208454670080
    131072 < size <=  4194304             3580776            1768077938296
   4194304 < size <= 16777216                   0                        0
  16777216 < size                               0                        0
 -------------------------------------------------------------------------------

 *** WARNING in dbcsr_mm.F:295 :: Using a non-square number of MPI ranks ***
 *** might lead to poor performance. Used ranks: 72 Suggested: 64 144    ***

 -------------------------------------------------------------------------------
 -                                                                             -
 -                      DBCSR MESSAGE PASSING PERFORMANCE                      -
 -                                                                             -
 -------------------------------------------------------------------------------
 ROUTINE             CALLS      AVE VOLUME [Bytes]
 MP_Group              325
 MP_Bcast              178                     12.
 MP_Allreduce        23417                     40.
 MP_Alltoall         16464                  54428.
 MP_Wait            399960
 MP_ISend           214416                 139095.
 MP_IRecv           214416                 136901.
 MP_Memory          226858
 -------------------------------------------------------------------------------

 MEMORY| Estimated peak process memory [MiB]                                 333

 -------------------------------------------------------------------------------
 ----                             MULTIGRID INFO                            ----
 -------------------------------------------------------------------------------
 count for grid        1:        3657006          cutoff [a.u.]          400.00
 count for grid        2:        1773350          cutoff [a.u.]          133.33
 count for grid        3:        1170394          cutoff [a.u.]           44.44
 count for grid        4:         793492          cutoff [a.u.]           14.81
 count for grid        5:          70790          cutoff [a.u.]            4.94
 total gridlevel count  :        7465032

 -------------------------------------------------------------------------------
 -                                                                             -
 -                         MESSAGE PASSING PERFORMANCE                         -
 -                                                                             -
 -------------------------------------------------------------------------------

 ROUTINE             CALLS      AVE VOLUME [Bytes]
 MP_Group                5
 MP_Bcast            19433                  39256.
 MP_Allreduce        51247                    918.
 MP_Sync                 5
 MP_Alltoall          6291                7246879.
 MP_SendRecv           284                   5037.
 MP_ISendRecv       101388                  38080.
 MP_Wait            128169
 MP_ISend            22958                 364687.
 MP_IRecv            22958                 366505.
 MP_Recv               464                1059584.
 -------------------------------------------------------------------------------


 -------------------------------------------------------------------------------
 -                                                                             -
 -                           R E F E R E N C E S                               -
 -                                                                             -
 -------------------------------------------------------------------------------
 
 CP2K version 7.1, the CP2K developers group (2019).
 CP2K is freely available from https://www.cp2k.org/ .

 Schuett, Ole; Messmer, Peter; Hutter, Juerg; VandeVondele, Joost. 
 Electronic Structure Calculations on Graphics Processing Units, John
 Wiley & Sons, Ltd, 173-190 (2016). 
 GPU-Accelerated Sparse Matrix-Matrix Multiplication for
 Linear Scaling Density Functional Theory.
 https://dx.doi.org/10.1002/9781118670712.ch8

 Borstnik, U; VandeVondele, J; Weber, V; Hutter, J. 
 PARALLEL COMPUTING, 40 (5-6), 47-58 (2014). 
 Sparse matrix multiplication: The distributed block-compressed sparse
 row library.
 https://dx.doi.org/10.1016/j.parco.2014.03.012

 Hutter, J; Iannuzzi, M; Schiffmann, F; VandeVondele, J. 
 WIREs Comput Mol Sci., 4 (1), 15-25 (2014). 
 CP2K: atomistic simulations of condensed matter systems.
 https://dx.doi.org/10.1002/wcms.1159

 Marek, A; Blum, V; Johanni, R; Havu, V; Lang, B; Auckenthaler, T;
 Heinecke, A; Bungartz, H; Lederer, H. 
 Journal of Physics: Condensed Matter, 26 (21), (2014). 
 The ELPA library: scalable parallel eigenvalue solutions for
 electronic structure
 theory and computational science.
 https://dx.doi.org/10.1088/0953-8984/26/21/213201

 Grimme, S; Ehrlich, S; Goerigk, L. 
 JOURNAL OF COMPUTATIONAL CHEMISTRY, 32, 1456 (2011). 
 Effect of the damping function in dispersion corrected density functional theory.
 https://dx.doi.org/10.1002/jcc.21759

 Grimme, S; Antony, J; Ehrlich, S; Krieg, H. 
 JOURNAL OF CHEMICAL PHYSICS, 132 (15), 154104 (2010). 
 A consistent and accurate ab initio parametrization of density
 functional dispersion correction (DFT-D) for the 94 elements H-Pu.
 https://dx.doi.org/10.1063/1.3382344

 VandeVondele, J; Hutter, J. 
 JOURNAL OF CHEMICAL PHYSICS, 127 (11), 114105 (2007). 
 Gaussian basis sets for accurate calculations on molecular systems in
 gas and condensed phases.
 https://dx.doi.org/10.1063/1.2770708

 Krack, M. 
 THEORETICAL CHEMISTRY ACCOUNTS, 114 (1-3), 145-152 (2005). 
 Pseudopotentials for H to Kr optimized for gradient-corrected
 exchange-correlation functionals.
 https://dx.doi.org/10.1007/s00214-005-0655-y

 VandeVondele, J; Krack, M; Mohamed, F; Parrinello, M; Chassaing, T;
 Hutter, J. COMPUTER PHYSICS COMMUNICATIONS, 167 (2), 103-128 (2005). 
 QUICKSTEP: Fast and accurate density functional calculations using a
 mixed Gaussian and plane waves approach.
 https://dx.doi.org/10.1016/j.cpc.2004.12.014

 Frigo, M; Johnson, SG. 
 PROCEEDINGS OF THE IEEE, 93 (2), 216-231 (2005). 
 The design and implementation of FFTW3.
 https://dx.doi.org/10.1109/JPROC.2004.840301

 VandeVondele, J; Hutter, J. 
 JOURNAL OF CHEMICAL PHYSICS, 118 (10), 4365-4369 (2003). 
 An efficient orbital transformation method for electronic structure
 calculations.
 https://dx.doi.org/10.1063/1.1543154

 Hartwigsen, C; Goedecker, S; Hutter, J. 
 PHYSICAL REVIEW B, 58 (7), 3641-3662 (1998). 
 Relativistic separable dual-space Gaussian pseudopotentials from H to Rn.
 https://dx.doi.org/10.1103/PhysRevB.58.3641

 Dudarev, SL; Botton, GA; Savrasov, SY; Humphreys, CJ; Sutton, AP. 
 PHYSICAL REVIEW B, 57 (3), 1505-1509 (1998). 
 Electron-energy-loss spectra and the structural stability of
 nickel oxide: An LSDA+U study.
 https://dx.doi.org/10.1103/PhysRevB.57.1505

 Lippert, G; Hutter, J; Parrinello, M. 
 MOLECULAR PHYSICS, 92 (3), 477-487 (1997). 
 A hybrid Gaussian and plane wave density functional scheme.
 https://dx.doi.org/10.1080/002689797170220

 Dudarev, SL; Manh, DN; Sutton, AP. 
 PHILOSOPHICAL MAGAZINE B, 75 (5), 613-628 (1997). 
 Effect of Mott-Hubbard correlations on the electronic
 structure and structural stability of uranium dioxide.
 https://dx.doi.org/10.1080/13642819708202343

 Perdew, JP; Burke, K; Ernzerhof, M. 
 PHYSICAL REVIEW LETTERS, 77 (18), 3865-3868 (1996). 
 Generalized gradient approximation made simple.
 https://dx.doi.org/10.1103/PhysRevLett.77.3865

 Goedecker, S; Teter, M; Hutter, J. 
 PHYSICAL REVIEW B, 54 (3), 1703-1710 (1996). 
 Separable dual-space Gaussian pseudopotentials.
 https://dx.doi.org/10.1103/PhysRevB.54.1703


 -------------------------------------------------------------------------------
 -                                                                             -
 -                                T I M I N G                                  -
 -                                                                             -
 -------------------------------------------------------------------------------
 SUBROUTINE                       CALLS  ASD         SELF TIME        TOTAL TIME
                                MAXIMUM       AVERAGE  MAXIMUM  AVERAGE  MAXIMUM
 CP2K                                 1  1.0    0.033    0.054  575.885  575.903
 qs_forces                            1  2.0    0.000    0.000  575.284  575.302
 qs_energies                          1  3.0    0.000    0.000  569.721  569.739
 scf_env_do_scf                       1  4.0    0.000    0.001  565.863  565.880
 scf_env_do_scf_inner_loop          157  5.0    0.006    0.012  549.534  549.596
 rebuild_ks_matrix                  158  7.0    0.001    0.001  268.194  268.471
 qs_ks_build_kohn_sham_matrix       158  8.0    0.019    0.022  268.193  268.471
 qs_ks_update_qs_env                161  6.0    0.001    0.001  264.346  264.619
 qs_rho_update_rho                  158  6.0    0.001    0.002  228.113  228.215
 calculate_rho_elec                 316  7.0  150.977  160.569  228.112  228.214
 pw_transfer                       4681 10.4    0.259    0.363  154.595  157.501
 fft_wrap_pw1pw2                   4365 11.5    0.045    0.058  153.446  156.314
 qs_vxc_create                      158  9.0    0.002    0.002  147.893  148.566
 fft_wrap_pw1pw2_400               2461 12.8    7.087    8.118  146.190  148.267
 fft3d_ps                          4365 13.5   63.534   75.017  130.221  134.315
 xc_rho_set_and_dset_create         158 11.0    0.964    1.096   98.770  107.023
 sum_up_and_integrate                80  9.0    0.207    0.257  105.210  105.243
 integrate_v_rspace                 160 10.0   75.536   78.851  105.002  105.063
 xc_vxc_pw_create                    80 10.0    1.157    1.443   94.844   95.518
 density_rs2pw                      316  8.0    0.019    0.023   68.576   83.854
 mp_alltoall_z22v                  4365 15.5   56.006   71.359   56.006   71.359
 qs_scf_new_mos                     157  6.0    0.001    0.001   68.499   68.948
 qs_scf_loop_do_ot                  157  7.0    0.001    0.001   68.498   68.947
 ot_scf_mini                        157  8.0    0.005    0.006   61.750   62.022
 dbcsr_multiply_generic            4545 10.8    0.239    0.256   60.889   61.714
 rs_pw_transfer                    2385 10.0    0.036    0.044   41.282   54.826
 xc_exc_calc                         78 10.0    0.083    0.100   53.046   53.049
 multiply_cannon                   4545 11.8    0.582    0.650   39.791   44.631
 xc_functional_eval                 158 12.0    0.001    0.002   35.912   43.688
 pbe_lsd_eval                       158 13.0   35.911   43.687   35.911   43.687
 x_to_yz                           1664 15.2    5.749    6.871   36.004   41.213
 yz_to_x                           1273 14.1    2.587    3.206   28.138   36.933
 mp_waitany                       22958 12.0   19.222   34.557   19.222   34.557
 rs_pw_transfer_RS2PW_400           318 10.0    4.985    9.298   18.083   31.784
 multiply_cannon_multrec          54540 12.8   22.994   27.468   23.014   27.488
 potential_pw2rs                    160 11.0    0.020    0.024   25.253   25.360
 mp_waitall_1                    505171 13.8   20.534   24.903   20.534   24.903
 qs_ot_get_p                        322  9.0    0.002    0.003   22.284   23.722
 ot_mini                            157  9.0    0.001    0.001   23.325   23.697
 qs_ot_get_derivative               158 10.0    0.001    0.002   16.333   16.610
 init_scf_loop                        4  5.0    0.000    0.000   16.295   16.303
 multiply_cannon_metrocomm3       54540 12.8    0.146    0.159    6.238   15.015
 mp_sum_d                         12370 11.8    7.888   14.787    7.888   14.787
 make_m2s                          9090 11.8    0.177    0.185   14.283   14.765
 qs_ot_p2m_diag                     259 10.0    0.353    0.496   14.468   14.685
 make_images                       9090 12.8    0.313    0.331   12.431   12.924
 cp_dbcsr_syevd                     259 11.0    0.011    0.011   12.326   12.348
 cp_fm_diag_elpa                    259 12.0    0.001    0.002   11.820   11.847
 cp_fm_diag_elpa_base               259 13.0   11.640   11.763   11.818   11.846
 -------------------------------------------------------------------------------

 The number of warnings for this run is : 2
 
 -------------------------------------------------------------------------------
  **** **** ******  **  PROGRAM ENDED AT                 2022-01-03 17:26:12.675
 ***** ** ***  *** **   PROGRAM RAN ON                                   c51-026
 **    ****   ******    PROGRAM RAN BY                                  ybzhuang
 ***** **    ** ** **   PROGRAM PROCESS ID                                 11680
  **** **  *******  **  PROGRAM STOPPED IN /data/ybzhuang/dpworkdir/5c6fccfa8c92
                                           b0d0f368b351028245f7e2471ae4/task.000
                                           .000000
