     154
 i =        0, time =        0.000, E =     -6731.8488046766
Fe1         0.0000000000        0.0000000000        0.0000000000
Fe1         2.1660000000        2.1660000000        0.0000000000
Fe1         4.3320000000        0.0000000000        0.0000000000
Fe1         6.4980000000        2.1660000000        0.0000000000
Fe1         0.0000000000        4.3320000000        0.0000000000
Fe1         2.1660000000        6.4980000000        0.0000000000
Fe1         4.3320000000        4.3320000000        0.0000000000
Fe1         6.4980000000        6.4980000000        0.0000000000
O         2.1660000000        0.0000000000        0.0000000000
O         0.0000000000        2.1660000000        0.0000000000
O         6.4980000000        0.0000000000        0.0000000000
O         4.3320000000        2.1660000000        0.0000000000
O         2.1660000000        4.3320000000        0.0000000000
O         0.0000000000        6.4980000000        0.0000000000
O         6.4980000000        4.3320000000        0.0000000000
O         4.3320000000        6.4980000000        0.0000000000
Fe2         0.0000000000        2.1660000000        2.1660000000
Fe2         2.1660000000        0.0000000000        2.1660000000
Fe2         4.3320000000        2.1660000000        2.1660000000
Fe2         6.4980000000        0.0000000000        2.1660000000
Fe2         0.0000000000        6.4980000000        2.1660000000
Fe2         2.1660000000        4.3320000000        2.1660000000
Fe2         4.3320000000        6.4980000000        2.1660000000
Fe2         6.4980000000        4.3320000000        2.1660000000
O         2.1660000000        2.1660000000        2.1660000000
O         0.0000000000        0.0000000000        2.1660000000
O         6.4980000000        2.1660000000        2.1660000000
O         4.3320000000        0.0000000000        2.1660000000
O         2.1660000000        6.4980000000        2.1660000000
O         0.0000000000        4.3320000000        2.1660000000
O         6.4980000000        6.4980000000        2.1660000000
O         4.3320000000        4.3320000000        2.1660000000
Fe1         0.0000000000        0.0000000000        4.3320000000
Fe1         2.1660000000        2.1660000000        4.3320000000
Fe1         4.3320000000        0.0000000000        4.3320000000
Fe1         6.4980000000        2.1660000000        4.3320000000
Fe1         0.0000000000        4.3320000000        4.3320000000
Fe1         2.1660000000        6.4980000000        4.3320000000
Fe1         4.3320000000        4.3320000000        4.3320000000
Fe1         6.4980000000        6.4980000000        4.3320000000
O         2.1660000000        0.0000000000        4.3320000000
O         0.0000000000        2.1660000000        4.3320000000
O         6.4980000000        0.0000000000        4.3320000000
O         4.3320000000        2.1660000000        4.3320000000
O         2.1660000000        4.3320000000        4.3320000000
O         0.0000000000        6.4980000000        4.3320000000
O         6.4980000000        4.3320000000        4.3320000000
O         4.3320000000        6.4980000000        4.3320000000
Fe2         0.0000000000        2.1660000000        6.4980000000
Fe2         2.1660000000        0.0000000000        6.4980000000
Fe2         4.3320000000        2.1660000000        6.4980000000
Fe2         6.4980000000        0.0000000000        6.4980000000
Fe2         0.0000000000        6.4980000000        6.4980000000
Fe2         2.1660000000        4.3320000000        6.4980000000
Fe2         4.3320000000        6.4980000000        6.4980000000
Fe2         6.4980000000        4.3320000000        6.4980000000
O         2.1660000000        2.1660000000        6.4980000000
O         0.0000000000        0.0000000000        6.4980000000
O         6.4980000000        2.1660000000        6.4980000000
O         4.3320000000        0.0000000000        6.4980000000
O         2.1660000000        6.4980000000        6.4980000000
O         0.0000000000        4.3320000000        6.4980000000
O         6.4980000000        6.4980000000        6.4980000000
O         4.3320000000        4.3320000000        6.4980000000
Fe1         0.0000000000        0.0000000000        8.6640000000
Fe1         2.1660000000        2.1660000000        8.6640000000
Fe1         4.3320000000        0.0000000000        8.6640000000
Fe1         6.4980000000        2.1660000000        8.6640000000
Fe1         0.0000000000        4.3320000000        8.6640000000
Fe1         2.1660000000        6.4980000000        8.6640000000
Fe1         4.3320000000        4.3320000000        8.6640000000
Fe1         6.4980000000        6.4980000000        8.6640000000
O         2.1660000000        0.0000000000        8.6640000000
O         0.0000000000        2.1660000000        8.6640000000
O         6.4980000000        0.0000000000        8.6640000000
O         4.3320000000        2.1660000000        8.6640000000
O         2.1660000000        4.3320000000        8.6640000000
O         0.0000000000        6.4980000000        8.6640000000
O         6.4980000000        4.3320000000        8.6640000000
O         4.3320000000        6.4980000000        8.6640000000
Fe2         0.0000000000        2.1660000000       10.8300000000
Fe2         2.1660000000        0.0000000000       10.8300000000
Fe2         4.3320000000        2.1660000000       10.8300000000
Fe2         6.4980000000        0.0000000000       10.8300000000
Fe2         0.0000000000        6.4980000000       10.8300000000
Fe2         2.1660000000        4.3320000000       10.8300000000
Fe2         4.3320000000        6.4980000000       10.8300000000
Fe2         6.4980000000        4.3320000000       10.8300000000
O         2.1660000000        2.1660000000       10.8300000000
O         0.0000000000        0.0000000000       10.8300000000
O         6.4980000000        2.1660000000       10.8300000000
O         4.3320000000        0.0000000000       10.8300000000
O         2.1660000000        6.4980000000       10.8300000000
O         0.0000000000        4.3320000000       10.8300000000
O         6.4980000000        6.4980000000       10.8300000000
O         4.3320000000        4.3320000000       10.8300000000
H         1.4760000000        7.2150000000       12.3490000000
H         2.2160000000        7.2150000000       12.3490000000
H         5.8930000000        0.8730000000       13.6720000000
H         6.6330000000        0.8730000000       13.6720000000
H         7.1250000000        6.4580000000       14.8920000000
H         7.8650000000        6.4580000000       14.8920000000
H         0.7640000000        1.2350000000       15.4380000000
H         1.5040000000        1.2350000000       15.4380000000
H         3.6720000000        5.7840000000       12.9770000000
H         4.4120000000        5.7840000000       12.9770000000
H         6.4580000000        2.1350000000       16.7840000000
H         7.1980000000        2.1350000000       16.7840000000
H         2.3490000000        4.6720000000       13.2150000000
H         3.0890000000        4.6720000000       13.2150000000
H         4.8920000000        3.7640000000       14.4580000000
H         5.6320000000        3.7640000000       14.4580000000
H         0.9770000000        5.4380000000       15.6720000000
H         1.7170000000        5.4380000000       15.6720000000
H         5.2150000000        7.3490000000       12.1350000000
H         5.9550000000        7.3490000000       12.1350000000
H         7.4380000000        4.9770000000       13.7640000000
H         8.1780000000        4.9770000000       13.7640000000
H         1.1350000000        3.8920000000       16.4580000000
H         1.8750000000        3.8920000000       16.4580000000
H         4.6720000000        0.7640000000       14.3490000000
H         5.4120000000        0.7640000000       14.3490000000
H         6.7840000000        5.2150000000       15.4380000000
H         7.5240000000        5.2150000000       15.4380000000
H         2.4580000000        7.1250000000       13.8730000000
H         3.1980000000        7.1250000000       13.8730000000
H         4.3490000000        2.4580000000       16.1250000000
H         5.0890000000        2.4580000000       16.1250000000
H         0.4380000000        6.7840000000       14.2150000000
H         1.1780000000        6.7840000000       14.2150000000
H         3.7640000000        4.3490000000       12.4580000000
H         4.5040000000        4.3490000000       12.4580000000
H         7.3490000000        1.4760000000       15.9770000000
H         8.0890000000        1.4760000000       15.9770000000
H         2.1250000000        5.8930000000       16.6720000000
H         2.8650000000        5.8930000000       16.6720000000
H         4.4390000000        0.4500000000       13.0810000000
H         5.1790000000        0.4500000000       13.0810000000
H         0.8530000000        5.8150000000       13.6260000000
H         0.8530000000        5.8150000000       12.8860000000
H         1.8590000000        3.3200000000       13.7730000000
H         1.8590000000        3.3200000000       13.0330000000
H         2.7900000000        0.6550000000       12.9230000000
H         2.8330000000        0.1290000000       13.4420000000
H         0.7920000000        0.7210000000       12.8360000000
H         0.8350000000        0.1960000000       13.3550000000
H         2.7320000000        0.6630000000       14.8930000000
H         2.7750000000        0.1380000000       15.4120000000
H         2.5230000000        0.3920000000       16.4190000000
H         3.0550000000        0.4180000000       16.9320000000
H         4.9610000000        6.5120000000       14.7200000000
H         5.0400000000        6.5230000000       15.4560000000
H         5.1240000000        5.8710000000       16.7200000000
H         5.8640000000        5.8710000000       16.7200000000
     154
 i =       10, time =        5.000, E =     -6732.2200119095
Fe1         0.0000000000        0.0000000000        0.0000000000
Fe1         2.1660000000        2.1660000000        0.0000000000
Fe1         4.3320000000        0.0000000000        0.0000000000
Fe1         6.4980000000        2.1660000000        0.0000000000
Fe1         0.0000000000        4.3320000000        0.0000000000
Fe1         2.1660000000        6.4980000000        0.0000000000
Fe1         4.3320000000        4.3320000000        0.0000000000
Fe1         6.4980000000        6.4980000000        0.0000000000
O         2.1660000000        0.0000000000        0.0000000000
O         0.0000000000        2.1660000000        0.0000000000
O         6.4980000000        0.0000000000        0.0000000000
O         4.3320000000        2.1660000000        0.0000000000
O         2.1660000000        4.3320000000        0.0000000000
O         0.0000000000        6.4980000000        0.0000000000
O         6.4980000000        4.3320000000        0.0000000000
O         4.3320000000        6.4980000000        0.0000000000
Fe2         0.0000000000        2.1660000000        2.1660000000
Fe2         2.1660000000        0.0000000000        2.1660000000
Fe2         4.3320000000        2.1660000000        2.1660000000
Fe2         6.4980000000        0.0000000000        2.1660000000
Fe2         0.0000000000        6.4980000000        2.1660000000
Fe2         2.1660000000        4.3320000000        2.1660000000
Fe2         4.3320000000        6.4980000000        2.1660000000
Fe2         6.4980000000        4.3320000000        2.1660000000
O         2.1660000000        2.1660000000        2.1660000000
O         0.0000000000        0.0000000000        2.1660000000
O         6.4980000000        2.1660000000        2.1660000000
O         4.3320000000        0.0000000000        2.1660000000
O         2.1660000000        6.4980000000        2.1660000000
O         0.0000000000        4.3320000000        2.1660000000
O         6.4980000000        6.4980000000        2.1660000000
O         4.3320000000        4.3320000000        2.1660000000
Fe1         0.0128837320       -0.0080270422        4.3212018753
Fe1         2.1585281289        2.1529978043        4.3103291997
Fe1         4.3753321968       -0.0303079805        4.3469526309
Fe1         6.5382739981        2.1513805767        4.3371518620
Fe1         0.0145671800        4.3178962867        4.3608790160
Fe1         2.1671894810        6.4837496084        4.3500101541
Fe1         4.3005236064        4.3078432156        4.3159075136
Fe1         6.4739325400        6.5187360831        4.3115564419
O         2.1626379225        0.0810211515        4.3066805962
O        -0.0148672148        2.2316123139        4.3070255728
O         6.5243637634       -0.0084552357        4.3823999343
O         4.3341692204        2.1844564622        4.2881177201
O         2.1397567086        4.3241190017        4.3678739428
O        -0.0017819915        6.5705120295        4.3371832688
O         6.5756091844        4.3543098800        4.3447777665
O         4.3271601757        6.4390322623        4.3755880853
Fe2        -0.0062413577        2.1758342365        6.5055176180
Fe2         2.1789108413        0.0009299772        6.4930261639
Fe2         4.3188568049        2.1861245904        6.5080553807
Fe2         6.5113847799       -0.0015018896        6.5418951233
Fe2        -0.0230763498        6.4990174485        6.4882711084
Fe2         2.1979111836        4.3335848180        6.4852234580
Fe2         4.2726443404        6.4937061846        6.5013720590
Fe2         6.4762406895        4.3495768320        6.4836023329
O         2.2242594014        2.2058045439        6.5493297011
O         0.0209733676       -0.0570556539        6.5163240207
O         6.5125498028        2.1716690919        6.4992224163
O         4.2681944414       -0.0098235278        6.5206507747
O         2.1163952480        6.5007326105        6.4822069756
O        -0.0001914969        4.3827270123        6.5344260730
O         6.4720880640        6.5201263538        6.5373877995
O         4.4111523379        4.3803702306        6.5446581358
Fe1         0.0082975313       -0.0195603446        8.6477724301
Fe1         2.2074634118        2.1820125089        8.6490365642
Fe1         4.3056576212       -0.0231243032        8.6669646418
Fe1         6.4611324141        2.1846992167        8.6536015646
Fe1        -0.0092622236        4.3710512244        8.6744125169
Fe1         2.1676161850        6.4918575120        8.6620261771
Fe1         4.3005408458        4.3316469914        8.6662269314
Fe1         6.5020953708        6.5011916887        8.6290541214
O         2.1486753268       -0.0428684064        8.6405193570
O        -0.0204660943        2.1482552281        8.6490423133
O         6.5066109523       -0.0203299121        8.6620508495
O         4.2687896681        2.1014340024        8.6585292373
O         2.1580576095        4.3148438006        8.6262420741
O         0.0238405575        6.5091631020        8.5821378943
O         6.5149309694        4.3871368974        8.6675223395
O         4.2735924087        6.4892635049        8.6501881460
Fe2         0.0143710844        2.1561053073       10.8349949960
Fe2         2.1793585997       -0.0001101035       10.8270038284
Fe2         4.3577731401        2.1442478116       10.8534455064
Fe2         6.5102978389        0.0467570374       10.8491791053
Fe2         0.0015629603        6.5006804160       10.8334261408
Fe2         2.1327015362        4.3263516565       10.7914069519
Fe2         4.3138997999        6.4775111925       10.8225603231
Fe2         6.5255324426        4.3278439495       10.8160156834
O         2.2365773247        2.1526761399       10.8820058736
O         0.0109426502       -0.0076979502       10.8836797804
O         6.5124573064        2.1493641163       10.8176471484
O         4.3069303726        0.0325777674       10.8662995296
O         2.1923061770        6.4453363831       10.8217191138
O        -0.0065194843        4.3417005183       10.8171087418
O         6.5443044953        6.4603528184       10.8505983372
O         4.2988180722        4.3662822520       10.7541061163
H         1.3723330505        7.1619778902       12.6411527376
H         2.1085017688        7.3841250799       12.5819800407
H         6.2663165161        1.1114722296       13.7705730120
H         7.0117862482        0.9067061228       13.6289946827
H         7.4080133415        6.7257226990       14.5217865635
H         7.8978655126        6.8221966586       15.1612011151
H         0.8125746311        1.1068654546       15.3483421401
H         1.4988882259        1.0036622590       15.5170908156
H         3.6065411358        6.1329687576       12.8777184387
H         4.3108386057        5.7871743303       12.9033954264
H         6.2379711399        1.9377973331       16.8469472001
H         6.8972935306        2.0091177367       17.1964537120
H         2.2556377597        4.8156979543       13.0089982319
H         2.9948285600        4.6960491561       13.0911430749
H         4.9269019914        4.0959744833       14.3465235825
H         5.5670623832        3.9148965577       14.7494830884
H         0.7680010919        5.5013759837       15.4426575751
H         1.4303272288        5.2248562354       15.5468709792
H         5.1057298752        7.6158294866       12.4340725682
H         5.7943857035        7.2275436203       12.1737874398
H         7.4066570194        4.9836918490       13.8333053680
H         8.0925631140        5.1631949469       13.6458020016
H         1.4102057234        3.7017368294       16.5457689111
H         2.0447374494        3.9573423185       16.3348222224
H         4.4789394523        0.9089227827       14.5751379831
H         5.2094674517        0.8097075185       14.7450520243
H         6.7542862195        5.0673658925       15.5730435379
H         7.4419245199        5.0388337205       15.2293823371
H         2.4380464698        7.2390117210       13.7749807844
H         3.1213232137        7.1546946257       14.1672494222
H         4.4292932820        2.4939981222       16.0824772641
H         5.1236788926        2.5399866263       15.8928768746
H         0.4535363298        7.1133423395       14.2024005676
H         1.1898855368        7.0748494831       14.3615078721
H         3.7552251671        3.9907712577       12.5880633181
H         4.5338234785        4.1044736354       12.5184670642
H         7.5501351064        1.2384126652       15.7456355734
H         8.3047269970        1.2122458757       15.7829445388
H         2.4706874345        5.9038644003       16.6931005555
H         3.1659740648        6.0485710129       16.7018089326
H         4.3502740814        0.4401736689       13.1033843561
H         5.0385549454        0.0638997051       12.9588352271
H         0.6059957921        5.7954086482       13.5159236291
H         0.8415262342        5.6619652926       12.7826481787
H         1.9937002394        3.1333034621       13.8234783336
H         1.9756190931        2.9849015380       13.1351159952
H         2.9699478432        0.7971420129       13.0535590004
H         2.4425370841        0.1666353654       13.3094871620
H         0.8420495537        0.9070499720       12.8594243878
H         0.4096081133        0.1952915507       13.1972137637
H         2.8930154281        0.5304590967       14.6496541831
H         2.8515544833        0.0062624579       15.1099192738
H         2.4862768002        0.5426057237       16.5345884934
H         3.2100545150        0.5340958164       16.9092162798
H         5.1739379057        6.4013285425       14.7217725717
H         5.0908128629        6.4798351440       15.4412030109
H         5.1377369729        5.6916938284       16.8517363740
H         5.8647962343        5.6952044486       16.7500390597
