     154
 i =        0, time =        0.000, E =     -6731.8488046766
Fe1         0.0000000000        0.0000000000        0.0000000000
Fe1         0.0000000000        0.0000000000        0.0000000000
Fe1         0.0000000000        0.0000000000        0.0000000000
Fe1         0.0000000000        0.0000000000        0.0000000000
Fe1         0.0000000000        0.0000000000        0.0000000000
Fe1         0.0000000000        0.0000000000        0.0000000000
Fe1         0.0000000000        0.0000000000        0.0000000000
Fe1         0.0000000000        0.0000000000        0.0000000000
O         0.0000000000        0.0000000000        0.0000000000
O         0.0000000000        0.0000000000        0.0000000000
O         0.0000000000        0.0000000000        0.0000000000
O         0.0000000000        0.0000000000        0.0000000000
O         0.0000000000        0.0000000000        0.0000000000
O         0.0000000000        0.0000000000        0.0000000000
O         0.0000000000        0.0000000000        0.0000000000
O         0.0000000000        0.0000000000        0.0000000000
Fe2         0.0000000000        0.0000000000        0.0000000000
Fe2         0.0000000000        0.0000000000        0.0000000000
Fe2         0.0000000000        0.0000000000        0.0000000000
Fe2         0.0000000000        0.0000000000        0.0000000000
Fe2         0.0000000000        0.0000000000        0.0000000000
Fe2         0.0000000000        0.0000000000        0.0000000000
Fe2         0.0000000000        0.0000000000        0.0000000000
Fe2         0.0000000000        0.0000000000        0.0000000000
O         0.0000000000        0.0000000000        0.0000000000
O         0.0000000000        0.0000000000        0.0000000000
O         0.0000000000        0.0000000000        0.0000000000
O         0.0000000000        0.0000000000        0.0000000000
O         0.0000000000        0.0000000000        0.0000000000
O         0.0000000000        0.0000000000        0.0000000000
O         0.0000000000        0.0000000000        0.0000000000
O         0.0000000000        0.0000000000        0.0000000000
Fe1         0.0024335012       -0.0001426885       -0.0020051328
Fe1         0.0030355724        0.0048199407       -0.0005817665
Fe1        -0.0020799465        0.0007281837        0.0003887876
Fe1        -0.0021006604        0.0047965349       -0.0027241053
Fe1         0.0024421297        0.0005041592       -0.0008325060
Fe1         0.0035758550       -0.0033173686        0.0014178021
Fe1        -0.0017957385       -0.0000456140        0.0035932282
Fe1        -0.0032450747       -0.0041697054       -0.0018769697
O         0.0079157102        0.0010070838        0.0012949267
O        -0.0000374465       -0.0015049351        0.0029286163
O        -0.0087521702        0.0072362900        0.0030840953
O         0.0003766623        0.0077853200        0.0096079364
O        -0.0004023261       -0.0005655944       -0.0003136391
O         0.0061690674        0.0006272039        0.0104004818
O        -0.0005240440       -0.0077027005        0.0026650271
O        -0.0065665165       -0.0087438208       -0.0003044848
Fe2        -0.0014898632        0.0011581655       -0.0018776430
Fe2         0.0001570229       -0.0037454857       -0.0005542905
Fe2         0.0020403297        0.0008635984        0.0015445188
Fe2         0.0003058217        0.0028195370       -0.0010141583
Fe2         0.0061139120       -0.0011240915        0.0003514458
Fe2        -0.0018060323        0.0014970753       -0.0016621011
Fe2        -0.0047247824        0.0036163453        0.0034765407
Fe2         0.0016720350       -0.0049257623       -0.0022510653
O        -0.0023573275       -0.0023109573       -0.0005074894
O        -0.0016081819        0.0007070193       -0.0005931904
O         0.0010256311        0.0059807732       -0.0004340497
O         0.0016814542       -0.0073625601       -0.0025423055
O        -0.0018950430        0.0000505360       -0.0012844035
O         0.0069052699       -0.0004820128       -0.0003278112
O         0.0008294278       -0.0077395584       -0.0011150559
O        -0.0069945755        0.0086304445       -0.0019880848
Fe1         0.0020438767       -0.0014638895       -0.0014802286
Fe1         0.0054216811        0.0020979066       -0.0008986293
Fe1        -0.0028212457       -0.0004962773        0.0005376946
Fe1        -0.0046309906        0.0022256810        0.0012490844
Fe1         0.0021413638        0.0016416907       -0.0000732009
Fe1         0.0063109691       -0.0029922201       -0.0025575763
Fe1        -0.0020146329        0.0018775123        0.0001348965
Fe1        -0.0037123288       -0.0024055227        0.0004773996
O         0.0049544386       -0.0061293949       -0.0040169084
O         0.0002693277       -0.0014848926        0.0038787790
O        -0.0066327276        0.0082747067        0.0044096839
O         0.0000400672       -0.0015434413       -0.0066971448
O         0.0049376034        0.0059412994        0.0048833297
O        -0.0016363437        0.0006836800       -0.0041217877
O        -0.0058546661       -0.0090301306        0.0107678468
O         0.0030263918        0.0008652953        0.0047090153
Fe2        -0.0023951136        0.0033334631       -0.0085908817
Fe2         0.0046537538        0.0077023422       -0.0103053403
Fe2         0.0071651494       -0.0042538994       -0.0028874081
Fe2         0.0027012018        0.0161057445       -0.0152803533
Fe2        -0.0059671802       -0.0037429790       -0.0022885388
Fe2        -0.0060143293       -0.0001796301       -0.0140431478
Fe2        -0.0105203034       -0.0080712890       -0.0244476028
Fe2         0.0045497391       -0.0020246982       -0.0132523141
O        -0.0023551267        0.0111332200       -0.0002143972
O         0.0041465157       -0.0097769747        0.0008155064
O         0.0034148898        0.0001605805        0.0086989662
O        -0.0197507471        0.0137650263       -0.0141760826
O         0.0237074162       -0.0381116643       -0.0483520528
O        -0.0001876079        0.0069406725        0.0069859221
O         0.0200712392       -0.0248227537       -0.0345971263
O         0.0074882629       -0.0071543367       -0.0658695170
H        -0.0135385281        0.0183287549        0.0254465189
H        -0.0084359845        0.0084452081        0.0149773958
H         0.0751172949        0.0289069157       -0.0506019857
H         0.0502155329        0.0016201613       -0.0143839411
H         0.0123756304        0.0470654804       -0.0128026111
H         0.0005657318        0.0502099148       -0.0156921264
H        -0.0017710841        0.0043015949       -0.0011421283
H        -0.0104602549        0.0090892151       -0.0036647925
H        -0.0004453788        0.0338296081        0.0073459826
H         0.0132759148        0.0205160585        0.0010649920
H        -0.0366558823        0.0266990781        0.0292731144
H        -0.0286174765        0.0338708408        0.0368787534
H        -0.0169302892        0.0278183894        0.0070162184
H        -0.0041858729        0.0087895956        0.0135900403
H         0.0056896218        0.0006493844       -0.0046926696
H        -0.0019230723        0.0013873099       -0.0023330231
H        -0.0181106730        0.0021215924       -0.0218841416
H        -0.0232410844        0.0025605441       -0.0290786150
H        -0.0129028882        0.0214037353        0.0389760058
H         0.0065405767       -0.0091031768        0.0258819566
H         0.0035690229       -0.0123866646       -0.0117039986
H        -0.0071468170       -0.0106403038       -0.0154372519
H         0.0087918783       -0.0148809817        0.0009177687
H        -0.0042458398       -0.0170180063        0.0051227503
H        -0.0344279650        0.0064242261        0.0571278240
H        -0.0352851542        0.0048627505        0.1379517631
H        -0.0053094015       -0.0429373876        0.0227318080
H        -0.0225610683       -0.0418266979        0.0227985525
H         0.0080582764        0.0035938630        0.0079014122
H         0.0084305425       -0.0003175561        0.0129730664
H        -0.0020277363       -0.0013694282       -0.0015926892
H        -0.0097772523        0.0002683707       -0.0003862452
H        -0.0088961256        0.0416593072        0.0277260845
H         0.0019146923        0.0414309317        0.0296399300
H         0.0188490971       -0.0422222973        0.0158231671
H         0.0155087109       -0.0252224316        0.0264345665
H         0.0274750575       -0.0343156824       -0.0451988868
H         0.0329423434       -0.0259895807       -0.0353442015
H         0.0192898590        0.0122608369        0.0163698186
H         0.0208218520        0.0059366884        0.0107871099
H        -0.0085880552       -0.0078303413       -0.0389102853
H        -0.0284729764       -0.0258915268       -0.0865769447
H         0.0018611418       -0.0409275873       -0.0344383257
H         0.0014717345       -0.0323111635       -0.0329165252
H        -0.0125065045       -0.0205158984       -0.0002918403
H        -0.0133890314       -0.0268952600        0.0077962707
H         0.0006865338        0.0047471209       -0.0074298218
H         0.0009103712        0.0056111145       -0.0091021568
H        -0.0084957646       -0.0017825840        0.0094243376
H        -0.0081694800        0.0084782547       -0.0010596209
H         0.0070842556       -0.0021011999       -0.0292502862
H         0.0162795549       -0.0115577336       -0.0416865637
H        -0.0045645186        0.0033195092        0.0449780305
H         0.0030009404       -0.0014259262        0.0272582052
H        -0.0021548686        0.0046781032       -0.0112209349
H        -0.0031096896        0.0065728338       -0.0181784740
H         0.0018170398       -0.0041060705        0.0118601463
H         0.0005563668       -0.0041072080        0.0107722238
     154
 i =       10, time =        5.000, E =     -6732.2200119095
Fe1         0.0000000000        0.0000000000        0.0000000000
Fe1         0.0000000000        0.0000000000        0.0000000000
Fe1         0.0000000000        0.0000000000        0.0000000000
Fe1         0.0000000000        0.0000000000        0.0000000000
Fe1         0.0000000000        0.0000000000        0.0000000000
Fe1         0.0000000000        0.0000000000        0.0000000000
Fe1         0.0000000000        0.0000000000        0.0000000000
Fe1         0.0000000000        0.0000000000        0.0000000000
O         0.0000000000        0.0000000000        0.0000000000
O         0.0000000000        0.0000000000        0.0000000000
O         0.0000000000        0.0000000000        0.0000000000
O         0.0000000000        0.0000000000        0.0000000000
O         0.0000000000        0.0000000000        0.0000000000
O         0.0000000000        0.0000000000        0.0000000000
O         0.0000000000        0.0000000000        0.0000000000
O         0.0000000000        0.0000000000        0.0000000000
Fe2         0.0000000000        0.0000000000        0.0000000000
Fe2         0.0000000000        0.0000000000        0.0000000000
Fe2         0.0000000000        0.0000000000        0.0000000000
Fe2         0.0000000000        0.0000000000        0.0000000000
Fe2         0.0000000000        0.0000000000        0.0000000000
Fe2         0.0000000000        0.0000000000        0.0000000000
Fe2         0.0000000000        0.0000000000        0.0000000000
Fe2         0.0000000000        0.0000000000        0.0000000000
O         0.0000000000        0.0000000000        0.0000000000
O         0.0000000000        0.0000000000        0.0000000000
O         0.0000000000        0.0000000000        0.0000000000
O         0.0000000000        0.0000000000        0.0000000000
O         0.0000000000        0.0000000000        0.0000000000
O         0.0000000000        0.0000000000        0.0000000000
O         0.0000000000        0.0000000000        0.0000000000
O         0.0000000000        0.0000000000        0.0000000000
Fe1         0.0052639351        0.0005481022        0.0038864487
Fe1         0.0027376194        0.0091846326        0.0027428199
Fe1        -0.0058801846        0.0047036521        0.0017149269
Fe1        -0.0119984854        0.0077367075       -0.0036616820
Fe1         0.0026865682        0.0065220437        0.0013784885
Fe1         0.0002088765        0.0006804623        0.0006151913
Fe1         0.0054928703       -0.0018601912        0.0102333756
Fe1         0.0003885214       -0.0083375985        0.0038961047
O         0.0121039855       -0.0138979188        0.0000284221
O         0.0069884519       -0.0111435224        0.0056482271
O        -0.0146997254        0.0116929112       -0.0043412331
O         0.0028000925        0.0032524276        0.0139877737
O         0.0064006152        0.0012045971       -0.0095214842
O         0.0067138257       -0.0076045807        0.0049043853
O        -0.0144548237       -0.0090538883       -0.0027119815
O        -0.0078094244       -0.0032865304       -0.0121833096
Fe2         0.0022272703        0.0028190730        0.0011826473
Fe2        -0.0058528816       -0.0027759698       -0.0001311616
Fe2         0.0067879281       -0.0002675639       -0.0004932135
Fe2        -0.0008625900        0.0024235938       -0.0023671999
Fe2         0.0046249892       -0.0023159462       -0.0026567592
Fe2        -0.0069764132        0.0042454634        0.0015985439
Fe2         0.0045599577        0.0060442548        0.0080930004
Fe2         0.0097074938       -0.0020492974       -0.0018614996
O        -0.0105402395       -0.0061982711       -0.0075692368
O        -0.0049824858        0.0152179030       -0.0080575112
O        -0.0048985856        0.0037988255       -0.0005386124
O         0.0113774684       -0.0024913821       -0.0098663727
O         0.0035439597       -0.0014822490       -0.0018233394
O         0.0065052481       -0.0103417941       -0.0039143072
O         0.0016288739       -0.0085966906       -0.0064417155
O        -0.0214345886        0.0013594883       -0.0079415483
Fe1         0.0030008798        0.0012129016        0.0054909336
Fe1        -0.0098527638       -0.0020253293        0.0055512217
Fe1        -0.0008949358       -0.0043688181        0.0033452678
Fe1        -0.0007138310        0.0026281139        0.0031297486
Fe1         0.0016427991       -0.0025368925       -0.0065425366
Fe1         0.0018093421       -0.0031347360       -0.0033480033
Fe1         0.0006379913        0.0022355909        0.0004427968
Fe1        -0.0064353655       -0.0009420090        0.0054676518
O         0.0087646200       -0.0004025560        0.0012677962
O         0.0047565727        0.0023028958        0.0058787275
O        -0.0115265032        0.0144856699        0.0077542854
O         0.0154403217        0.0059208197       -0.0054023617
O         0.0055545580        0.0096853815        0.0082707327
O        -0.0071145776       -0.0017121030        0.0113648191
O        -0.0120079347       -0.0175934798        0.0121958776
O         0.0100598240        0.0037786315        0.0053439184
Fe2         0.0034893807        0.0010331579       -0.0119577559
Fe2         0.0026078998        0.0038463567       -0.0091112805
Fe2         0.0030415454        0.0008566434       -0.0020970515
Fe2         0.0035753266       -0.0033236940       -0.0167286919
Fe2        -0.0023675051        0.0015098041       -0.0065792720
Fe2         0.0047478898       -0.0023259596       -0.0019681508
Fe2        -0.0038066329       -0.0044719244       -0.0120455906
Fe2        -0.0028766571       -0.0004130545       -0.0127709806
O        -0.0143933396        0.0150232470       -0.0070996089
O         0.0015383120       -0.0104131487       -0.0096069274
O         0.0015007372        0.0058296681        0.0078047668
O        -0.0101416720        0.0072582205       -0.0247797259
O         0.0051801456       -0.0129573078       -0.0163815413
O         0.0015383870        0.0020537713        0.0086651398
O         0.0037580059       -0.0030245917       -0.0186952401
O         0.0122857149       -0.0113685310       -0.0272863710
H         0.0064049912        0.0145999271       -0.0057449399
H        -0.0229859837       -0.0008793827       -0.0100520567
H         0.0302378248       -0.0056596150       -0.0083866547
H        -0.0201633257        0.0079158140        0.0008207307
H         0.0180958905        0.0168716394        0.0305338011
H        -0.0317168437        0.0062523287       -0.0299360445
H        -0.0118152912        0.0052657508       -0.0120529243
H         0.0212479321        0.0017097556        0.0020243614
H         0.0237693516       -0.0042431583        0.0022003845
H        -0.0120240243        0.0145850073       -0.0023707550
H         0.0082277963        0.0034944897        0.0084867790
H        -0.0118385896        0.0007998943       -0.0051923689
H        -0.0086569065        0.0088556847        0.0019997305
H        -0.0143906187        0.0082953620        0.0026782721
H         0.0228665432       -0.0059946677        0.0083598216
H        -0.0201890438        0.0081617280       -0.0166109934
H        -0.0108717606        0.0062909025       -0.0052354206
H        -0.0003527295        0.0008467603       -0.0077307081
H         0.0294278319       -0.0152613516        0.0020391875
H        -0.0133371797        0.0007407834        0.0184809190
H        -0.0108861476       -0.0107854908       -0.0131794381
H        -0.0045882313       -0.0090829351       -0.0157707778
H        -0.0102555359       -0.0147269076        0.0035990054
H         0.0174246952       -0.0061214512       -0.0027122109
H         0.0195842358       -0.0000387585        0.0165154582
H        -0.0113870917        0.0055247852        0.0116128764
H         0.0181108685       -0.0096218599        0.0018744439
H        -0.0233502373       -0.0093233754        0.0236326350
H         0.0333532986       -0.0073149167        0.0215445514
H        -0.0087954826       -0.0023128542        0.0009800583
H        -0.0154909189        0.0007873335        0.0038841390
H         0.0025716902        0.0037870107       -0.0021710326
H         0.0119786200        0.0153764185        0.0084913923
H        -0.0111289006        0.0117835409        0.0093278498
H         0.0336427264       -0.0185130474        0.0158695938
H        -0.0137880834       -0.0135394346        0.0153240860
H         0.0109139834       -0.0030705919       -0.0059670059
H        -0.0246324410       -0.0012196402       -0.0037470367
H        -0.0173930068       -0.0007645824       -0.0024027908
H         0.0227789267        0.0061904488       -0.0030324638
H         0.0239394207       -0.0096937299       -0.0120044314
H        -0.0281417099        0.0194898958        0.0048851410
H         0.0120857483       -0.0096615537       -0.0283028257
H        -0.0041863438       -0.0050432200        0.0090638973
H        -0.0037923993       -0.0044565142        0.0268986102
H        -0.0043889563       -0.0183473464       -0.0205213104
H        -0.0258820669       -0.0225922739       -0.0056570395
H         0.0198921840        0.0365644435       -0.0266887753
H        -0.0351322544       -0.0457012715        0.0315761529
H         0.0255849149        0.0550685799       -0.0210901653
H         0.0029289769        0.0188980868       -0.0131491525
H         0.0058458258       -0.0238261705        0.0206848959
H         0.0410365543        0.0005876811        0.0317219027
H        -0.0363264623        0.0007700297       -0.0133825952
H        -0.0017987247        0.0045171236       -0.0151121334
H        -0.0025717592        0.0063865608       -0.0073016678
H        -0.0042550568       -0.0030773921        0.0070575333
H         0.0041362724       -0.0028204118        0.0059025507
