     174
 i =        0, time =        0.000, E =      -334.6315068706
  H        -0.0055095081        0.0204563816       -0.0137562784
  H         0.0147954320       -0.0105158717       -0.0149765586
  O        -0.0121541759       -0.0080270865        0.0290960408
  H        -0.0079508967        0.0222640311       -0.0056953527
  H        -0.0134991719       -0.0071208374        0.0175690921
  O         0.0214173497       -0.0169625449       -0.0107796656
  H         0.0136109295       -0.0183361194       -0.0013395008
  H        -0.0090991074        0.0018343950        0.0235801690
  O        -0.0064726773        0.0173932386       -0.0252509143
  H        -0.0066552728        0.0193711494       -0.0124293554
  H        -0.0115423651       -0.0105879863       -0.0167830359
  O         0.0179924808       -0.0097738754        0.0282824051
  H        -0.0243351814        0.0114408656        0.0010332541
  H         0.0081493455        0.0202334779       -0.0045979519
  O         0.0158311177       -0.0336201502        0.0031087961
  H         0.0046759164        0.0103813016        0.0234275182
  H        -0.0197271590       -0.0059357998        0.0121444341
  O         0.0161671034       -0.0055717459       -0.0371753178
  H        -0.0119399519       -0.0135329063       -0.0164754099
  H        -0.0140947915        0.0179449801        0.0005914861
  O         0.0280949116       -0.0063811767        0.0147241920
  H        -0.0194893964       -0.0113624189       -0.0062038529
  H         0.0068469613       -0.0109593244        0.0187163715
  O         0.0130101336        0.0254566292       -0.0128956220
  H         0.0053432373        0.0063385008        0.0238375452
  H         0.0246927543        0.0041186611       -0.0081595337
  O        -0.0300532071       -0.0095776331       -0.0178572818
  H        -0.0246519730        0.0070312494        0.0003414870
  H         0.0069253581        0.0158909678       -0.0183503962
  O         0.0181505840       -0.0230992150        0.0191630688
  H        -0.0206676282       -0.0046432091       -0.0150786384
  H        -0.0058971231        0.0224712207        0.0057030192
  O         0.0271783534       -0.0181736294        0.0106281563
  H         0.0117220667       -0.0217272600        0.0009160744
  H        -0.0164502049       -0.0072433918        0.0185758100
  O         0.0067374174        0.0275443615       -0.0181459651
  H         0.0099899238       -0.0194539080        0.0134613033
  H         0.0034479007        0.0168425822        0.0184827752
  O        -0.0117282326        0.0025149696       -0.0298807094
  H        -0.0035290584       -0.0130451697       -0.0189862817
  H         0.0111999782        0.0185482435       -0.0131870323
  O        -0.0043227818       -0.0051639874        0.0317996612
  H        -0.0155917230       -0.0118063039       -0.0042547128
  H        -0.0093932077        0.0199704278       -0.0019292757
  O         0.0284718528       -0.0064970868        0.0107760403
  H        -0.0005619311        0.0198115670        0.0117716358
  H         0.0260865766       -0.0020996401        0.0006594718
  O        -0.0263757428       -0.0174325397       -0.0132246981
  H        -0.0104445780        0.0206288818       -0.0082702131
  H        -0.0064139617       -0.0010819269        0.0214216680
  O         0.0171157206       -0.0223149367       -0.0175572131
  H         0.0059901520       -0.0007022565        0.0210809791
  H        -0.0226999236        0.0068329550        0.0026464138
  O         0.0152617459       -0.0107138220       -0.0235095591
  H         0.0080316451       -0.0187278876       -0.0122973192
  H         0.0144811816        0.0060410893        0.0151509847
  O        -0.0280533387        0.0104310470       -0.0001939229
  H        -0.0175765394        0.0005857956       -0.0147914594
  H         0.0126552269       -0.0158804152       -0.0127157952
  O         0.0054391055        0.0175224968        0.0221355908
  H        -0.0111379035        0.0219940443        0.0047147404
  H         0.0032432381        0.0100578268       -0.0233173583
  O         0.0089407141       -0.0361824006        0.0201182743
  H        -0.0023794541        0.0087709962       -0.0182102101
  H         0.0191617889       -0.0167863811       -0.0057134366
  O        -0.0195023288        0.0076060939        0.0280786036
  H        -0.0141371499        0.0049827939       -0.0172711248
  H        -0.0143977257       -0.0129242819        0.0130722327
  O         0.0319076285        0.0096605035        0.0051000167
  H         0.0190087727        0.0110116987        0.0026876312
  H         0.0126734232       -0.0166204098       -0.0128659536
  O        -0.0287662869        0.0067847882        0.0107309869
  H         0.0002165418       -0.0219407260       -0.0076281227
  H        -0.0193506206       -0.0018276738        0.0158279237
  O         0.0192895301        0.0248815939       -0.0063734899
  H        -0.0033808824        0.0173515930       -0.0137676671
  H        -0.0126801025        0.0145891004        0.0187120250
  O         0.0146696496       -0.0289233278       -0.0058877531
  H         0.0574585892       -0.0544932459        0.0336840293
  O        -0.0545099176        0.0462614923        0.0535494784
  H        -0.0091531890        0.0153011746       -0.0153425863
  H         0.0061945065       -0.0149569944       -0.0111953525
  O         0.0040904854        0.0006647860        0.0273433796
  H        -0.0036168302       -0.0031687053       -0.0233314538
  H         0.0063628494        0.0248621385       -0.0072374430
  O        -0.0023367454       -0.0183580121        0.0294849419
  H         0.0169117118       -0.0003727326       -0.0141903425
  H         0.0159306175        0.0116497307        0.0177038301
  O        -0.0331305989       -0.0055117417       -0.0032976005
  H        -0.0135141351        0.0214525048        0.0010168600
  H         0.0051230363        0.0019201407       -0.0248606288
  O         0.0089014205       -0.0257189375        0.0221418921
  H         0.0018567744       -0.0124202542       -0.0193166968
  H        -0.0200482721        0.0152879410       -0.0049343665
  O         0.0196583559        0.0013901298        0.0239493246
  H         0.0007258659       -0.0248640872       -0.0026157127
  H         0.0254830203        0.0007165337        0.0080790616
  O        -0.0285197967        0.0268106279       -0.0055681120
  H        -0.0027100281        0.0069231410       -0.0236839514
  H         0.0059514938       -0.0241487287       -0.0005040140
  O        -0.0052853019        0.0181642547        0.0255955538
  H        -0.0098045176        0.0161354542        0.0144864353
  H        -0.0067933323        0.0107998925       -0.0221158468
  O         0.0180073162       -0.0249487829        0.0089653973
  H         0.0204246002       -0.0049287832        0.0041022234
  H         0.0040278584        0.0157626484        0.0171080222
  O        -0.0250203500       -0.0085049090       -0.0228646553
  H        -0.0201184874        0.0014459610       -0.0070393097
  H         0.0139543342       -0.0149255528       -0.0136814471
  O         0.0096401984        0.0140995473        0.0208601000
  H         0.0092749552        0.0178669086       -0.0082669364
  H        -0.0203294726        0.0145305759        0.0076305230
  O         0.0100145154       -0.0317860646        0.0046538980
  H        -0.0167846449        0.0051394922       -0.0144102441
  H        -0.0061571515        0.0092679860        0.0234526543
  O         0.0221163043       -0.0186550730       -0.0078213745
  H         0.0231598994       -0.0061980699        0.0087028093
  H         0.0078829456        0.0204574829       -0.0087324154
  O        -0.0337197273       -0.0152726371        0.0003123303
  H         0.0125041485        0.0041686273        0.0152043006
  H        -0.0159701202       -0.0120075090        0.0117309432
  O         0.0029445603        0.0058013491       -0.0270362072
  H         0.0203767286       -0.0090666135        0.0073393168
  H        -0.0039193454       -0.0218305101       -0.0087920082
  O        -0.0189422856        0.0326749288        0.0000259502
  H        -0.0087122378       -0.0231742250        0.0044227127
  H        -0.0170424595        0.0129490166        0.0063524170
  O         0.0251987836        0.0092810968       -0.0118992134
  H         0.0096499920        0.0165142518        0.0106982515
  H         0.0233358790       -0.0135736120        0.0033340403
  O        -0.0317352188       -0.0064918303       -0.0129356583
  H         0.0046603657        0.0192644726       -0.0058172677
  H        -0.0195394850       -0.0065996400       -0.0130603884
  O         0.0145960541       -0.0154110035        0.0202277847
  H         0.0114783645       -0.0192383103       -0.0063878464
  H         0.0156292059        0.0012451089        0.0186025178
  O        -0.0281359314        0.0134735630       -0.0095509979
  H         0.0147176565       -0.0140744764        0.0062671515
  H        -0.0187652190        0.0059159707        0.0148345522
  O         0.0048900598        0.0117811830       -0.0205416111
  H         0.0082977497        0.0095760729        0.0169152900
  H         0.0020070382        0.0156626476       -0.0199807738
  O        -0.0097002686       -0.0297302307        0.0022358446
  H        -0.0203770610        0.0118875225        0.0076711331
  H        -0.0096507732        0.0030128753       -0.0200916282
  O         0.0280160166       -0.0098317518        0.0106972841
  H         0.0065054244        0.0161649472        0.0115577063
  H        -0.0142178336        0.0138469650       -0.0078973331
  O         0.0044870339       -0.0325556457       -0.0006616287
  H         0.0576565402       -0.0518292688        0.0335094157
  O        -0.0532693858        0.0466194350        0.0499685631
  H         0.0063190963       -0.0160987105       -0.0192506055
  H         0.0144172469       -0.0096858829        0.0147508893
  O        -0.0196539596        0.0277095778        0.0034750808
  H        -0.0092394861        0.0196905237       -0.0142295025
  H        -0.0147464466        0.0013800680        0.0131415936
  O         0.0247285085       -0.0223105654       -0.0016739318
  H        -0.0156399873       -0.0175720428        0.0092746072
  H        -0.0194495949        0.0105421700       -0.0128226426
  O         0.0345845172        0.0043843642        0.0037898685
  H         0.0144961627       -0.0148787964        0.0157222610
  H        -0.0221808503       -0.0096735731        0.0059347903
  O         0.0073420561        0.0251122989       -0.0236599294
  H         0.0209632772       -0.0032860856        0.0074684338
  H         0.0017482049        0.0258059281       -0.0012971855
  O        -0.0222882949       -0.0194446102       -0.0069943410
  H         0.0098697404        0.0090959404        0.0221263886
  H        -0.0124812544       -0.0200260837        0.0107063269
  O         0.0030774882        0.0114526552       -0.0333776136
  H        -0.0023578008       -0.0149501573        0.0218628293
  H         0.0227116072       -0.0039462778       -0.0011950617
  O        -0.0197913518        0.0176954050       -0.0197714226
  H        -0.0032377828        0.0064805581       -0.0871192561
  H        -0.0037747123        0.0061054210       -0.0877003838
     174
 i =        1, time =        1.000, E =      -334.6562734354
  H        -0.0030643275        0.0130519171       -0.0109720174
  H         0.0063382959       -0.0061604740       -0.0087595488
  O        -0.0062272982       -0.0049490155        0.0202556886
  H        -0.0032930873        0.0147452590       -0.0053139900
  H        -0.0028752896       -0.0043448342        0.0053141852
  O         0.0061687924       -0.0122605899        0.0011980668
  H         0.0198367181       -0.0269358333        0.0010440322
  H        -0.0074003378        0.0005645267        0.0242461870
  O        -0.0144649839        0.0272949753       -0.0283892578
  H        -0.0090757386        0.0225242160       -0.0156898319
  H        -0.0124554456       -0.0086955297       -0.0178719380
  O         0.0214091775       -0.0149164088        0.0325694563
  H        -0.0239406236        0.0120104340        0.0015223186
  H         0.0017935306        0.0103626675       -0.0034088963
  O         0.0216958487       -0.0243776073        0.0014603470
  H         0.0015060394        0.0059047700        0.0177434409
  H        -0.0036529496        0.0009554508        0.0087785456
  O         0.0032830981       -0.0079765153       -0.0282904638
  H        -0.0070959194       -0.0025316747       -0.0069117127
  H        -0.0160138068        0.0178643944       -0.0014259978
  O         0.0251716715       -0.0171610380        0.0071955941
  H        -0.0191883264       -0.0089848019       -0.0087314589
  H         0.0136688870       -0.0155443669        0.0313863887
  O         0.0059602963        0.0277174582       -0.0230858258
  H         0.0017983668       -0.0009210370        0.0032451916
  H         0.0039010565       -0.0001989490        0.0006558885
  O        -0.0057520482        0.0021274379       -0.0058127460
  H        -0.0209499078        0.0052279554        0.0021784782
  H         0.0009577603        0.0041667332        0.0013418304
  O         0.0204239263       -0.0096408544       -0.0024182412
  H        -0.0208492373       -0.0030329716       -0.0140321786
  H        -0.0051874509        0.0015626414       -0.0000545859
  O         0.0266281739        0.0011431090        0.0152107035
  H         0.0099463460       -0.0141057306       -0.0025261955
  H        -0.0238184956       -0.0047761020        0.0246229643
  O         0.0159488146        0.0172603598       -0.0207211156
  H         0.0046497571       -0.0073967590        0.0072480582
  H         0.0003102748        0.0028704159        0.0057254648
  O        -0.0033482853        0.0046230174       -0.0107563536
  H        -0.0041206849       -0.0143102435       -0.0187080901
  H         0.0128611907        0.0228091274       -0.0136281931
  O        -0.0052609496       -0.0080993812        0.0319005620
  H        -0.0106848932       -0.0085255324       -0.0021356569
  H        -0.0073349107        0.0124198737       -0.0001619054
  O         0.0215724154       -0.0021679344        0.0069319998
  H         0.0029223231        0.0175976928        0.0100161142
  H         0.0177952915        0.0018321211        0.0016393608
  O        -0.0215789441       -0.0191310129       -0.0124671043
  H        -0.0093351868        0.0191864250       -0.0084499858
  H        -0.0027124859       -0.0007928403        0.0114614429
  O         0.0122557592       -0.0211285709       -0.0073125148
  H         0.0050158662       -0.0013871157        0.0077880097
  H        -0.0380176925        0.0100255608        0.0000847774
  O         0.0315755754       -0.0131926861       -0.0076889515
  H        -0.0009299726        0.0069900267        0.0051685217
  H         0.0137559938        0.0031150509        0.0119658155
  O        -0.0184975663       -0.0124631423       -0.0145189397
  H        -0.0100621976       -0.0014158828       -0.0122518771
  H         0.0155159021       -0.0232209932       -0.0176651283
  O        -0.0049219842        0.0268522917        0.0245479764
  H        -0.0044902477        0.0077205935       -0.0010410569
  H         0.0019364307        0.0074967186       -0.0151517435
  O         0.0035606753       -0.0191184933        0.0176723695
  H         0.0031082501       -0.0013357482       -0.0031606492
  H        -0.0052065694        0.0068378710       -0.0008090941
  O        -0.0004883222       -0.0059131939        0.0080748382
  H        -0.0170662217        0.0050526920       -0.0200888559
  H        -0.0183961574       -0.0160784575        0.0159362374
  O         0.0389219227        0.0125662069        0.0050902608
  H         0.0201983276        0.0187273022        0.0054778802
  H         0.0125186075       -0.0271549900       -0.0170098053
  O        -0.0296248827        0.0095117629        0.0121074071
  H         0.0028610410       -0.0216648709       -0.0081501506
  H        -0.0322615903        0.0018880238        0.0235374451
  O         0.0295803787        0.0208611053       -0.0135054270
  H        -0.0005352787        0.0057958367        0.0002169176
  H        -0.0014946774        0.0002983420        0.0030749030
  O         0.0006101198       -0.0030897730       -0.0043347629
  H         0.0521577487       -0.0470947044        0.0284361297
  O        -0.0516954559        0.0417719462        0.0588426425
  H         0.0021469056       -0.0084676067        0.0107114665
  H        -0.0044108160        0.0003612676       -0.0031074502
  O         0.0034765854        0.0090658415       -0.0068915830
  H        -0.0021624309       -0.0007987936       -0.0118070457
  H         0.0075706557        0.0289978391       -0.0057833443
  O        -0.0049192902       -0.0250533004        0.0164102154
  H         0.0120539039        0.0009202115       -0.0083297583
  H         0.0055181176        0.0013199118        0.0008282223
  O        -0.0179608295        0.0033920790        0.0078222477
  H        -0.0138514562        0.0219359139        0.0009875979
  H         0.0050733433        0.0026301759       -0.0250336502
  O         0.0092434368       -0.0269704486        0.0223172457
  H         0.0008126902        0.0044242848        0.0046327467
  H        -0.0262520711        0.0196135224       -0.0046867824
  O         0.0267328466       -0.0196127193       -0.0003193838
  H        -0.0002932936       -0.0209738338       -0.0030652923
  H         0.0156055400        0.0017873008        0.0045657074
  O        -0.0175785258        0.0218914427       -0.0017049500
  H        -0.0023858685        0.0062157344       -0.0151853679
  H         0.0063879497       -0.0243963945        0.0014321366
  O        -0.0061421088        0.0190970356        0.0151486311
  H        -0.0080789339        0.0144161659        0.0127935635
  H        -0.0027916301        0.0065284662       -0.0116704168
  O         0.0122152634       -0.0189404687        0.0001126489
  H        -0.0003217709        0.0065730403        0.0034673725
  H         0.0053877418       -0.0046005768       -0.0065979472
  O        -0.0057683054        0.0002781240        0.0015215076
  H        -0.0252380672        0.0016809990       -0.0082883565
  H         0.0157604572       -0.0171639210       -0.0152661310
  O         0.0128938475        0.0162068174        0.0237975453
  H         0.0188811310        0.0243174040       -0.0179510799
  H        -0.0355438554        0.0181434967        0.0181113442
  O         0.0157175245       -0.0417202125        0.0038014348
  H         0.0063117960       -0.0038097506        0.0106401612
  H        -0.0091771539        0.0101038052        0.0180071108
  O         0.0018771898       -0.0105082766       -0.0272680076
  H         0.0274551394       -0.0071928934        0.0104505977
  H         0.0045807552        0.0038060742       -0.0017744800
  O        -0.0345104366        0.0023504667       -0.0084737027
  H         0.0105613407        0.0035454552        0.0128546193
  H        -0.0132846691       -0.0103083349        0.0096026892
  O         0.0021590336        0.0046851581       -0.0224413458
  H         0.0254495828       -0.0087820680        0.0099017212
  H        -0.0023371847       -0.0114752925       -0.0017031557
  O        -0.0256224829        0.0221100863       -0.0097449452
  H        -0.0100048062       -0.0331186370        0.0072958060
  H        -0.0098807395        0.0098448444        0.0035866383
  O         0.0194788308        0.0224216235       -0.0120115969
  H         0.0149482763        0.0274930082        0.0150307718
  H         0.0340318829       -0.0187784129        0.0040397852
  O        -0.0479044093       -0.0123525498       -0.0177158361
  H         0.0040090990        0.0235034659       -0.0087995722
  H        -0.0170526230       -0.0036379808       -0.0120491653
  O         0.0129285214       -0.0225631161        0.0219668912
  H         0.0068348907       -0.0070640023        0.0026342327
  H         0.0169428407       -0.0007384990        0.0179976910
  O        -0.0248693193        0.0032157339       -0.0179190973
  H         0.0044366708       -0.0035913532        0.0007412012
  H        -0.0048092324        0.0014354020        0.0015291889
  O         0.0012618553        0.0056791076       -0.0016923637
  H         0.0019633566        0.0005922946        0.0082009274
  H         0.0009514817        0.0214667211       -0.0310393268
  O        -0.0023652497       -0.0263181904        0.0220278841
  H        -0.0251425153        0.0153168396        0.0127534697
  H        -0.0065408353       -0.0005239120       -0.0046810624
  O         0.0297758261       -0.0098221066       -0.0099319391
  H         0.0076186747        0.0182662379        0.0137742669
  H        -0.0127686635        0.0131318472       -0.0071880930
  O         0.0019630491       -0.0340397210       -0.0035484964
  H         0.0562344027       -0.0492948470        0.0313488332
  O        -0.0491356089        0.0446770529        0.0410406560
  H         0.0020350628       -0.0095122477       -0.0107618396
  H         0.0190334115       -0.0110321708        0.0215324435
  O        -0.0200003787        0.0223454020       -0.0119711964
  H         0.0047526252       -0.0115209863        0.0023806697
  H        -0.0010490599        0.0001287744       -0.0044744337
  O        -0.0029255139        0.0101413398       -0.0005127891
  H        -0.0095579044       -0.0121448248        0.0063707385
  H         0.0011788993        0.0003497736        0.0006037051
  O         0.0077762568        0.0090402331       -0.0066100544
  H         0.0161093139       -0.0176970848        0.0181843844
  H        -0.0277672398       -0.0126951727        0.0073554696
  O         0.0114712079        0.0309786774       -0.0274933003
  H         0.0107748026       -0.0013005681        0.0050223924
  H         0.0007554173        0.0270713421       -0.0011134993
  O        -0.0112306492       -0.0227039058       -0.0049404612
  H         0.0047356287        0.0037533436        0.0126136561
  H        -0.0114813915       -0.0189090200        0.0104007392
  O         0.0072010439        0.0156530308       -0.0235615410
  H         0.0012459972       -0.0070943953        0.0077394408
  H         0.0191078717       -0.0039305999        0.0013825752
  O        -0.0198177552        0.0098617611       -0.0082785261
  H        -0.0059087631        0.0060247899       -0.0759046284
  H        -0.0013363561        0.0032307794       -0.0876821897
     174
 i =        2, time =        2.000, E =      -334.6883532921
  H         0.0020079270       -0.0048224256       -0.0039057994
  H        -0.0102172857        0.0018475966        0.0025611565
  O         0.0051741303        0.0048815475        0.0020990669
  H         0.0039413979       -0.0019719394       -0.0005044412
  H         0.0133920043        0.0017704712       -0.0146282639
  O        -0.0172427574       -0.0016055304        0.0164395362
  H         0.0173039742       -0.0242437828        0.0041954639
  H        -0.0016050622       -0.0017793849        0.0132439981
  O        -0.0177568512        0.0269165320       -0.0206192612
  H        -0.0091847204        0.0149270256       -0.0127450902
  H        -0.0086818562        0.0005467677       -0.0130890750
  O         0.0178238490       -0.0167220554        0.0246521611
  H        -0.0111402557        0.0082336254       -0.0002828859
  H        -0.0103710887       -0.0063960227       -0.0018636381
  O         0.0208188341       -0.0038515518        0.0019908668
  H        -0.0049931074       -0.0050370437        0.0020363109
  H         0.0194711845        0.0122772405        0.0029707933
  O        -0.0132971830       -0.0083267138       -0.0069100741
  H         0.0018342536        0.0150689696        0.0093430684
  H        -0.0115700764        0.0075229836       -0.0023052971
  O         0.0117917905       -0.0241770192       -0.0082326174
  H        -0.0094308729       -0.0016067563       -0.0069520873
  H         0.0145377011       -0.0131660701        0.0318558156
  O        -0.0044505673        0.0180108376       -0.0254522039
  H        -0.0014580047       -0.0125774501       -0.0264938844
  H        -0.0258387730       -0.0050298784        0.0153591481
  O         0.0272647953        0.0188885908        0.0095277499
  H        -0.0049094043        0.0015766251        0.0024455463
  H        -0.0093640390       -0.0119645193        0.0291530133
  O         0.0146365721        0.0100838617       -0.0304735058
  H        -0.0107825357        0.0019157098       -0.0054270668
  H        -0.0035513358       -0.0277179358       -0.0059906345
  O         0.0149563748        0.0256348858        0.0122951178
  H         0.0019150742        0.0012935656       -0.0038930890
  H        -0.0209669225       -0.0008700229        0.0195099899
  O         0.0210248154       -0.0021554609       -0.0141929025
  H        -0.0040927966        0.0141964441       -0.0038999246
  H        -0.0025307762       -0.0184932833       -0.0135679311
  O         0.0081548602        0.0046410273        0.0200300402
  H        -0.0007757667       -0.0078842505       -0.0096712143
  H         0.0093131659        0.0158516150       -0.0085733689
  O        -0.0046510607       -0.0073546504        0.0176419249
  H         0.0016398146       -0.0001552499        0.0035738837
  H        -0.0033521861       -0.0045196120        0.0019923080
  O         0.0053388652        0.0063880318       -0.0009278666
  H         0.0081887460        0.0055450664        0.0035903572
  H        -0.0016755875        0.0063828688        0.0033538602
  O        -0.0073888907       -0.0115675729       -0.0078032941
  H        -0.0034466775        0.0069646097       -0.0039475709
  H         0.0036711575        0.0009675824       -0.0080670920
  O         0.0000092555       -0.0107234378        0.0079418428
  H         0.0003837849       -0.0008847342       -0.0134365387
  H        -0.0378062892        0.0089505558       -0.0018706930
  O         0.0361640506       -0.0127557025        0.0154962185
  H        -0.0135384204        0.0392127222        0.0265323546
  H         0.0045864944       -0.0032550550        0.0025133521
  O         0.0029179597       -0.0385098433       -0.0265708546
  H         0.0059559974       -0.0029594735       -0.0050067937
  H         0.0103394750       -0.0200562309       -0.0166912148
  O        -0.0158004933        0.0250852700        0.0165007872
  H         0.0071967739       -0.0146066144       -0.0108220579
  H        -0.0025967276        0.0027244712        0.0039393300
  O        -0.0037446306        0.0083479988        0.0083987111
  H         0.0100108083       -0.0153955517        0.0191670598
  H        -0.0372955351        0.0369929748        0.0071517860
  O         0.0248833782       -0.0220212393       -0.0221812223
  H        -0.0128551979        0.0016732669       -0.0132064695
  H        -0.0148208730       -0.0128493690        0.0101191693
  O         0.0311866208        0.0124662599        0.0040225397
  H         0.0134934210        0.0179601318        0.0050671379
  H         0.0066187758       -0.0264160951       -0.0152440439
  O        -0.0167703822        0.0092894327        0.0106528986
  H         0.0047964858       -0.0113100772       -0.0032514770
  H        -0.0309508910        0.0034695470        0.0232223806
  O         0.0261586299        0.0087960148       -0.0182312390
  H         0.0012935537       -0.0103909468        0.0205816992
  H         0.0130204183       -0.0176520943       -0.0219273438
  O        -0.0158193406        0.0311876620       -0.0000284559
  H         0.0293756841       -0.0238755969        0.0134934341
  O        -0.0319624623        0.0218202149        0.0552378390
  H         0.0184511831       -0.0357709345        0.0416757076
  H        -0.0188000656        0.0210584621        0.0088038220
  O         0.0015900400        0.0156761025       -0.0498433208
  H         0.0017445888        0.0059487395        0.0077861871
  H         0.0056710826        0.0189835979       -0.0026458656
  O        -0.0068014263       -0.0221910707       -0.0066123644
  H         0.0015991705        0.0035730009        0.0052620094
  H        -0.0115321251       -0.0133772535       -0.0226075352
  O         0.0094201045        0.0150542169        0.0176868264
  H        -0.0070093135        0.0114915426       -0.0005417086
  H         0.0013234247        0.0039935416       -0.0129996050
  O         0.0061483865       -0.0177942930        0.0117255737
  H        -0.0011489775        0.0240536514        0.0357174170
  H        -0.0199963202        0.0162097209       -0.0038466144
  O         0.0223189560       -0.0356514890       -0.0322775715
  H         0.0007747883       -0.0052126474       -0.0012624711
  H        -0.0055770396        0.0004986551       -0.0028148913
  O         0.0026052999        0.0075420451        0.0038541342
  H        -0.0001544132        0.0020932758        0.0040924802
  H         0.0033933105       -0.0122670690        0.0023888047
  O        -0.0056508337        0.0111816809       -0.0050229730
  H        -0.0018453667        0.0057947079        0.0025684571
  H         0.0038483972       -0.0018656586        0.0089644419
  O        -0.0006214610       -0.0018122466       -0.0103736948
  H        -0.0273105674        0.0219054533        0.0008437458
  H         0.0084520985       -0.0302535250       -0.0367242179
  O         0.0179749360        0.0105241310        0.0342730278
  H        -0.0186887493        0.0016017711       -0.0053645163
  H         0.0104391608       -0.0105049035       -0.0102473182
  O         0.0117258563        0.0098380697        0.0159669794