     174
 i =        0, time =        0.000, E =      -334.6315068706
  H        10.9645666667       10.3452671667        8.9681661667
  H         9.9887666667       11.5532671667        9.1448661667
  O        10.7333666667       11.2260671667        8.5817661667
  H         8.1933666667       15.4662671667       10.5704661667
  H         8.4281666667       16.6274671667        9.5489651667
  O         7.8495666667       16.3536671667       10.3004661667
  H        16.8685666667       10.1942671667       17.1335661667
  H        17.8211666667        9.3844661667       16.1921651667
  O        17.4771676667        9.4138671667       17.1197661667
  H        12.2831666667        6.9310671667       16.3685651667
  H        12.5291676667        8.4772671667       16.4000661667
  O        12.1309676667        7.7580671667       15.8486651667
  H        12.6957676667        8.4062671667        6.5456661667
  H        11.2351666667        7.8918671667        6.7628661667
  O        11.7681666667        8.7208671667        6.6821661667
  H        12.3871656667        8.6076671667       11.6414651667
  H        13.5611666667        9.4842671667       12.1925661667
  O        12.6691666667        9.1300671667       12.4322661667
  H        13.4839666667       12.9998671667       14.4140661667
  H        13.5989676667       11.5446661667       13.8479671667
  O        13.0783676667       12.3814671667       13.7570671667
  H         7.7307666667        3.9292671667       16.1729661667
  H         6.5757666667        3.9144671667       15.1220661667
  O         6.9251666667        3.4224671667       15.9056661667
  H        15.2839666667        3.8254671667        8.8604661667
  H        14.5119676667        3.9674671667       10.2161661667
  O        15.3907666667        4.1360671667        9.7937661667
  H         7.9129666667        6.5468671667        7.9334661667
  H         6.6269666667        6.2470671667        8.7725671667
  O         6.9407666667        6.7162671667        7.9601661667
  H        14.8439666667       16.0814671667        6.3638661667
  H        14.2013666667       14.9150681667        5.5406671667
  O        14.0937666667       15.8742671667        5.7524661667
  H         6.7023666667       12.7146671667       16.4936661667
  H         7.8821666667       12.0292671667       15.7289661667
  O         7.2431666667       11.8868671667       16.4705661667
  H         8.6659666667        8.8396681667        4.6988661667
  H         8.8655666667        7.3064671667        4.4657661667
  O         9.0205666667        8.0226671667        5.1299671667
  H         5.0133666667        9.0190671667       13.2404651667
  H         4.3251666667        7.6428671667       12.9575651667
  O         4.7181666667        8.4290671667       12.5042651667
  H        10.4457666667       10.6698671667       11.8400671667
  H         9.9109666667        9.2132671667       11.6360661667
  O         9.6761666667       10.1620681667       11.4839661667
  H        13.7303666667       15.4530671667       15.4694651667
  H        12.5985666667       16.4314671667       15.9245661667
  O        13.5811666667       16.3192671667       15.9233661667
  H        16.3819666667       13.4180671667       16.9316671667
  H        16.2849666667       14.3450671667       15.6731661667
  O        15.9797656667       14.2632671667       16.6109661667
  H        10.8417666667       16.1726671667        9.5156661667
  H        12.0489666667       15.8892671667       10.4675651667
  O        11.0989666667       16.1638671667       10.4708661667
  H        15.0093666667       15.2922671667       13.1993661667
  H        14.6069656667       14.2322681667       12.1211661667
  O        15.3573656667       14.5102671667       12.7028661667
  H         9.6867666667        8.6124671667       16.8953651667
  H         8.2933666667        9.3196671667       16.8317661667
  O         8.8229666667        8.5962671667       16.4135651667
  H        14.0785666667        9.3492671667        8.4215661667
  H        13.4723676667        9.9612671667        9.7265661667
  O        13.6743666667       10.1762671667        8.7830671667
  H        16.0693666667        6.2068671667        8.0642661667
  H        15.1785666667        7.3172671667        7.4171661667
  O        15.8837676667        6.6572671667        7.2035661667
  H        13.0223666667        5.2528671667        8.4413661667
  H        13.0263666667        5.9926671667        7.0652661667
  O        12.4265666667        5.5382671667        7.7066661667
  H        11.4561666667       14.6672671667       12.9293651667
  H        11.6989656667       16.0716671667       13.5752661667
  O        12.1737666667       15.3046671667       13.1690651667
  H         5.7977666667        9.8810671667        6.9632661667
  H         6.6173666667        8.9210671667        6.0410661667
  O         5.7445666667        9.0110671667        6.4964661667
  H        10.5653666667        6.4374671667       14.0075661667
  H        10.9211666667        6.4564671667       12.4838661667
  O        10.4759666667        6.9872671667       13.1912651667
  H         9.9569666667       11.8320681667       17.3876651667
  O        10.6969666667       11.0920671667       17.7575661667
  H         8.0783666667        6.7290671667       11.8058661667
  H         7.3019666667        8.0620671667       11.5388651667
  O         7.8025666667        7.3422671667       11.0804671667
  H        15.3771666667       10.5838671667        6.5618671667
  H        15.0085666667        9.2646671667        5.8055661667
  O        15.2131676667       10.2204671667        5.6555661667
  H        13.2553666667        6.1948671667       13.7624661667
  H        13.4213666667        5.6206671667       12.3152661667
  O        13.9183666667        6.0780671667       13.0382671667
  H        10.2529666667        4.9088671667       16.5521661667
  H         9.4539666667        5.7980671667       17.5643651667
  O         9.7245666667        5.7432671667       16.6145671667
  H        14.9787666667       13.2964671667        9.6260661667
  H        15.8777666667       12.2332671667        8.9063651667
  O        15.0233666667       12.7254671667        8.8196661667
  H        10.9501666667       14.4782671667       15.5771661667
  H         9.8899666667       13.4338671667       15.0980661667
  O        10.8163666667       13.5080671667       15.4364661667
  H        16.3437676667        4.9808671667       15.9119661667
  H        15.9907666667        6.1880671667       14.9825671667
  O        16.2369666667        5.2304671667       14.9606671667
  H         9.6105666667       13.7438671667        7.4252661667
  H         9.4927666667       13.9804671667        8.9681661667
  O         9.1863666667       14.3344671667        8.0963661667
  H        14.8459666667       11.6850661667       11.6093661667
  H        15.7261666667       10.5980671667       10.9121671667
  O        15.7195676667       11.2260671667       11.6753661667
  H         7.7787666667        6.6778671667       14.6588671667
  H         6.3617666667        7.3304671667       14.7836671667
  O         6.8675666667        6.6498671667       14.2736641667
  H        17.2201666667       13.5192671667       10.7531661667
  H        18.4375656667       13.7350681667        9.7931651667
  O        17.6545656667       14.1992671667       10.1813661667
  H         7.7269666667       11.9550671667        8.0783661667
  H         7.2669666667       11.9054661667        6.5831661667
  O         7.0209666667       12.2784661667        7.4660661667
  H        16.4429676667        8.9804671667        9.0530661667
  H        17.0829666667        7.8106671667        9.8720661667
  O        17.2805676667        8.7064671667        9.5027671667
  H        13.0755666667       11.0834671667       16.2869661667
  H        14.4839656667       11.7454661667       16.4585671667
  O        13.7781656667       11.2668671667       16.9589651667
  H        13.5353666667        7.2728671667        9.8225661667
  H        14.6953666667        7.7738671667       10.7441661667
  O        14.4243656667        7.0152671667       10.1693661667
  H         7.8643666667       10.6558671667       13.5746651667
  H         8.2205666667        9.1346671667       13.6763671667
  O         7.5157666667        9.7912671667       13.9025651667
  H        10.6407666667        9.5156671667       14.3357661667
  H        10.0573666667       10.9250671667       14.6762681667
  O        10.9027666667       10.4118661667       14.6621651667
  H        12.1357666667       13.5180671667        8.0864661667
  H        13.1333666667       14.7012661667        8.3006661667
  O        12.2871666667       14.4652671667        7.8467661667
  H        16.1925666667       13.9576671667        6.7268661667
  H        15.9763656667       13.0100671667        5.5025661667
  O        16.5913666667       13.1846671667        6.2570671667
  H        16.0491666667       12.2624681667       14.2841641667
  H        17.3297666667       11.4136661667       13.9961661667
  O        16.6539656667       11.5964661667       14.6945671667
  H         8.7837666667       12.9114671667       11.2013661667
  H         9.1947666667       12.7414671667       12.7028661667
  O         9.2239666667       13.3836671667       11.9510651667
  H         9.0815666667        8.8826671667        7.7540661667
  H         8.4841666667        9.1580671667        9.1730661667
  O         8.3385666667        9.3468671667        8.2136671667
  H        14.3569666667        8.4882671667       14.4071651667
  H        15.5229676667        8.6870671667       15.4226661667
  O        14.8137676667        9.1812671667       14.9432661667
  H        14.1063676667        7.6018671667       17.0399671667
  O        14.8463666667        6.8618671667       17.4101661667
  H         6.5363666667       11.4484671667       11.5835651667
  H         6.2337666667       11.1886681667       10.0703661667
  O         6.8357666667       10.9150671667       10.8059661667
  H         9.1247666667       15.5328681667       13.9499661667
  H         9.3435666667       16.3752671667       12.6500661667
  O         8.7977666667       16.3360671667       13.4741671667
  H        18.7559676667       14.6396671667       12.7730651667
  H        19.0081666667       13.4724671667       13.7861671667
  O        18.2959666667       13.9084671667       13.2560651667
  H        17.4499676667       16.2658671667        7.0805661667
  H        18.9501676667       16.0414661667        7.4624661667
  O        18.0371676667       15.7154681667        7.6553671667
  H        11.5305666667       13.2368661667       10.5476661667
  H        12.3751666667       11.9716671667       10.9133661667
  O        12.4383666667       12.9546671667       10.8218661667
  H        10.1583666667       18.7246671667        8.9942661667
  H        11.0847676667       19.9108661667        9.4226661667
  O        10.5779666667       19.1430671667        9.7868661667
  H        17.5075666667        5.5950671667       11.1212671667
  H        16.4327656667        5.1880671667       12.1796661667
  O        17.3971676667        5.1054671667       11.9738651667
  H        14.8463666667        6.8618671667       18.5201661667
  H        10.6969666667       11.0920671667       18.8675671667
     174
 i =        1, time =        1.000, E =      -334.6562734354
  H        10.9305860147       10.3297919219        8.9590914987
  H         9.9701131211       11.5248604531        9.1198527899
  O        10.7131845105       11.2037995846        8.5761255031
  H         8.1550933847       15.4590094086       10.5820877843
  H         8.3996451064       16.6039620257        9.5479951250
  O         7.8344523371       16.3325468993       10.2833021587
  H        16.8338636977       10.1878816821       17.0809638853
  H        17.7717516652        9.3581617525       16.1530185109
  O        17.4527298533        9.3951836333       17.0904334096
  H        12.2950122556        6.9147808998       16.3319969216
  H        12.5333840939        8.4507446430       16.3811723876
  O        12.1103776773        7.7505364639       15.8231002597
  H        12.6757820206        8.3767322190        6.5237559459
  H        11.2157220233        7.8996133727        6.7485870244
  O        11.7567751725        8.7064921318        6.6790331317
  H        12.3785325091        8.6018849160       11.6269055236
  H        13.5111409540        9.4863228735       12.1704208812
  O        12.6506955349        9.1168203611       12.4135286392
  H        13.4600898473       12.9728027338       14.3757662110
  H        13.5885804262       11.5390041682       13.8351406641
  O        13.0572446372       12.3698334204       13.7300122329
  H         7.7143140980        3.9139017224       16.1689851817
  H         6.5677924172        3.8969273241       15.0568109847
  O         6.9132530082        3.4180803850       15.8749624672
  H        15.2740509068        3.8112203202        8.8759782941
  H        14.5113504331        3.9839658770       10.2060263931
  O        15.3592486311        4.1312959516        9.7786884654
  H         7.8956038348        6.5391108655        7.8933711472
  H         6.6147600228        6.2514084861        8.7329500571
  O         6.9301073430        6.7035389478        7.9468445439
  H        14.8361054822       16.0698933807        6.3385799423
  H        14.1870803712       14.9134724662        5.5663039930
  O        14.0760659914       15.8532060152        5.7443779094
  H         6.6796293825       12.6774119429       16.4977234979
  H         7.8773881697       11.9976569735       15.6876195308
  O         7.2271971992       11.8687351563       16.4361605074
  H         8.6683236089        8.8136476339        4.6867985260
  H         8.8815347537        7.3079396153        4.4633198048
  O         9.0046539174        8.0095792410        5.1147859219
  H         5.0039561250        9.0039905959       13.2171427638
  H         4.3234739949        7.6095182942       12.9247909010
  O         4.7062121080        8.4130953957       12.4818522051
  H        10.4177723896       10.6435167269       11.8240162817
  H         9.8827372174        9.2021960445       11.5896262808
  O         9.6542652936       10.1452091667       11.4640478875
  H        13.6999043421       15.4173817385       15.4569904610
  H        12.5890984722       16.3713532839       15.9064762600
  O        13.5648143683       16.2925057016       15.8906634087
  H        16.3490025301       13.3956218379       16.9124033742
  H        16.2492403428       14.3271904459       15.6621472806
  O        15.9539499474       14.2395922595       16.5880153994
  H        10.8094328268       16.1653142538        9.5139022604
  H        12.0583225980       15.8819644173       10.4521669162
  O        11.0817550076       16.1383891748       10.4468070952
  H        14.9826791025       15.2355305301       13.1611933390
  H        14.5717689008       14.2075881544       12.1252014425
  O        15.3312360541       14.4846697114       12.6892332369
  H         9.6594569588        8.6208371876       16.8677110383
  H         8.2813330886        9.3235603870       16.8062648324
  O         8.8069703840        8.5810912801       16.3848767701
  H        14.0645638583        9.3575048329        8.4168367731
  H        13.4338401452        9.9501030152        9.7018214590
  O        13.6531183175       10.1576678005        8.7728914778
  H        16.0298141509        6.2121806392        8.0312214155
  H        15.1739352595        7.2792916594        7.4053836117
  O        15.8543156724        6.6520259086        7.1889311831
  H        13.0103898925        5.2663289171        8.4433300900
  H        13.0136540775        6.0062601422        7.0651644090
  O        12.4079408213        5.5301898834        7.6979647122
  H        11.4473601773       14.6084233094       12.9206560767
  H        11.6987282315       16.0781956063       13.5484603882
  O        12.1498431580       15.2777987550       13.1499954197
  H         5.7599788081        9.8706495122        6.9392152450
  H         6.6252206389        8.8933631305        6.0209777550
  O         5.7331548868        8.9949162648        6.4822357715
  H        10.5176963842        6.4254951320       13.9652990677
  H        10.8764923322        6.4797658148       12.4581160853
  O        10.4596085616        6.9695231764       13.1709081523
  H         9.9501491876       11.7805248624       17.3703772057
  O        10.6871919340       11.0725229077       17.7270870120
  H         8.0772021567        6.7536744713       11.7510621775
  H         7.2985280016        8.0293463805       11.5146163911
  O         7.7828998659        7.3301921247       11.0599968091
  H        15.3705453128       10.5799949500        6.5284522791
  H        14.9794396201        9.2473586954        5.7876214816
  O        15.1904808781       10.2075311173        5.6459710236
  H        13.2639093703        6.1823725214       13.7499455164
  H        13.3908308676        5.6244696383       12.3266941819
  O        13.8998812108        6.0638239160       13.0155667752
  H        10.2426717766        4.9021519577       16.5143507044
  H         9.4396598579        5.7721335012       17.5371201550
  O         9.7096473275        5.7338353255       16.5860365081
  H        14.9555821143       13.2400919244        9.5998388941
  H        15.8580089090       12.2019302500        8.8733340384
  O        15.0002216402       12.7102278945        8.8068405673
  H        10.9366247603       14.4452714508       15.5636543361
  H         9.8883115027       13.3884604569       15.0816214100
  O        10.8013415854       13.4829352791       15.4106291997
  H        16.3266316074        4.9746455235       15.8797972059
  H        15.9512305121        6.1753856902       14.9398497178
  O        16.2071105860        5.2204915866       14.9408127844
  H         9.5799056069       13.7195366987        7.4206332889
  H         9.4580331708       13.9545227580        8.9543388239
  O         9.1703179368       14.3103893401        8.0942405725
  H        14.8425212916       11.6656929549       11.5636294442
  H        15.7102383150       10.6087624968       10.9143731762
  O        15.6853269568       11.2133456115       11.6491499801
  H         7.7778514484        6.6649325094       14.6302730104
  H         6.3557741211        7.3279706213       14.7754583852
  O         6.8547812235        6.6438966323       14.2548017848
  H        17.1731560476       13.4938231427       10.7563408109
  H        18.4251116146       13.7290645269        9.7342714075
  O        17.6233619534       14.1756023010       10.1661125819
  H         7.7068841368       11.9529046969        8.0248841527
  H         7.2717736628       11.8534350723        6.5910808642
  O         7.0092436461       12.2523990609        7.4534446808
  H        16.4054875180        8.9589734892        9.0518233011
  H        17.0711180785        7.8073003017        9.8528283635
  O        17.2548553036        8.6851852443        9.4927428515
  H        13.0430623748       11.0718519684       16.2705226204
  H        14.4484210712       11.7338229135       16.4326078984
  O        13.7518903580       11.2504178611       16.9311122950
  H        13.5028936852        7.2559610800        9.8155041145
  H        14.7002478817        7.7448015552       10.7107661453
  O        14.4018138665        7.0018948416       10.1572413164
  H         7.8420285304       10.6521975535       13.5376559893
  H         8.1801102164        9.1051380276       13.6630540181
  O         7.5028004020        9.7763390553       13.8838558498
  H        10.6023194223        9.4873266907       14.3069828061
  H        10.0283936432       10.9153787454       14.6352904459
  O        10.8905341586       10.3954826041       14.6373197948
  H        12.1117190756       13.5005914391        8.1034970410
  H        13.1246569405       14.6585958628        8.2782473192
  O        12.2717289803       14.4454051257        7.8329733992
  H        16.1726995851       13.9273957440        6.6980194408
  H        15.9458493646       13.0047908997        5.4945559638
  O        16.5666801906       13.1632787985        6.2486273207
  H        16.0520763650       12.2417150572       14.2602416966
  H        17.3013896276       11.4012346360       14.0035702169
  O        16.6298862037       11.5812716818       14.6724629649
  H         8.7753158188       12.9271653649       11.1830388665
  H         9.1877983539       12.7171441581       12.7044864836
  O         9.2111189222       13.3616095465       11.9342200928
  H         9.0593201121        8.8532984606        7.7181079502
  H         8.4597696530        9.1329685513        9.1388998414
  O         8.3259129609        9.3300119209        8.2002344892
  H        14.3380317388        8.4843068268       14.3602372892
  H        15.4821743341        8.6648969435       15.4048463564
  O        14.7881947405        9.1698722404       14.9190389291
  H        14.0877107696        7.5742182298       17.0355116193
  O        14.8279977099        6.8429657738       17.3865243596
  H         6.5387580782       11.4294360241       11.5516029346
  H         6.2116326474       11.1639697852       10.0382357834
  O         6.8187609552       10.8956460543       10.7858795228
  H         9.0885083801       15.5404842824       13.9153803976
  H         9.2917186712       16.3707511204       12.6326407441
  O         8.7896832961       16.3059257083       13.4490504342
  H        18.7001629147       14.6113087569       12.7550460243
  H        18.9316030062       13.4485150135       13.7689078740
  O        18.2627170410       13.8866041587       13.2438535217
  H        17.4264580110       16.2500044971        7.0626310259
  H        18.9288043611       16.0315459736        7.4516235957
  O        18.0111782531       15.6870178140        7.6378242050
  H        11.5329264873       13.2236106392       10.5104895023
  H        12.3529656947       11.9414061838       10.8749133854
  O        12.4135195881       12.9275064601       10.8085160647
  H        10.1444302550       18.6958264070        8.9868475059
  H        11.0620255099       19.8768343715        9.4018090574
  O        10.5615907336       19.1073857057        9.7654213197
  H        17.4671985277        5.5823479300       11.1148887407
  H        16.4033613914        5.1607467487       12.1350323684
  O        17.3689389340        5.1024381227       11.9516058156
  H        14.8667016314        6.8506745619       18.4648560772
  H        10.6713616318       11.0919233797       18.8368354302
     174
 i =        2, time =        2.000, E =      -334.6883532921
  H        10.8568598700       10.2848971934        8.9135165141
  H         9.9199094470       11.4532019580        9.0586520419
  O        10.6555293376       11.1423750633        8.5414255952
  H         8.0864826779       15.4055794150       10.5547057930
  H         8.3402885358       16.5206384769        9.5166782931
  O         7.7922640034       16.2543498481       10.2304244510
  H        16.7503713553       10.1328808330       16.9691497831
  H        17.6566007876        9.2994492447       16.0695546918
  O        17.3672312430        9.3446457584       17.0007859094
  H        12.2600790806        6.8855485738       16.2307400323
  H        12.4882145807        8.3903550773       16.2965920888
  O        12.0483475288        7.7156718984       15.7435534059
  H        12.5998804446        8.3238035367        6.4797615872
  H        11.1581630238        7.8853308519        6.7091131338
  O        11.7053051612        8.6610891598        6.6528400988
  H        12.3277826150        8.5692462202       11.5807858786
  H        13.4119382570        9.4561280931       12.1102877075
  O        12.5883831683        9.0716570747       12.3507792232
  H        13.3858808276       12.8993047113       14.2838571089
  H        13.5231913458       11.5022731019       13.7736551226
  O        12.9915220255       12.3147878972       13.6553886523
  H         7.6614817059        3.8803501156       16.1047935920
  H         6.5438009649        3.8579781475       14.9541877528
  O         6.8774853247        3.4026944568       15.7882866048
  H        15.2121475408        3.7831539023        8.8626747848
  H        14.4625542086        3.9868469774       10.1608280088
  O        15.2740685160        4.1122586614        9.7294503672
  H         7.8403492376        6.5112565725        7.8265277051
  H         6.5800143086        6.2362926223        8.6632779549
  O         6.8960053188        6.6671820552        7.9058184682
  H        14.7665751066       16.0011662341        6.2840924614
  H        14.1210349722       14.8611365355        5.5730623551
  O        14.0103425612       15.7771424003        5.7168150081
  H         6.6384324886       12.5888614229       16.4436254198
  H         7.8335395854       11.9218027021       15.6037178036
  O         7.1865434682       11.8099030043       16.3438658146
  H         8.6430894158        8.7531578689        4.6619676632
  H         8.8672201420        7.2856234912        4.4482651652
  O         8.9573182527        7.9687934299        5.0813915147
  H         4.9750915554        8.9505184089       13.1385804661
  H         4.3132028312        7.5607213349       12.8401680692
  O         4.6776728684        8.3675940118       12.4170179053
  H        10.3481125876       10.5758149707       11.7658522878
  H         9.8163462875        9.1653485849       11.5024252085
  O         9.5993902840       10.0930125473       11.4044786904
  H        13.6231520274       15.3366739867       15.3959321864
  H        12.5448467650       16.2547605565       15.8340192454
  O        13.5007188452       16.2085103785       15.8022371403
  H        16.2544917510       13.3361117411       16.8302826687
  H        16.1555541534       14.2591971835       15.6025735807
  O        15.8730627245       14.1657534539       16.5072340376
  H        10.7417995730       16.1013546145        9.4831238154
  H        12.0073389960       15.8246895841       10.4005018382
  O        11.0270205111       16.0564132243       10.3860935424
  H        14.9034175805       15.1288411203       13.0795931550
  H        14.4925726898       14.1350436367       12.0933595773
  O        15.2512203884       14.4083051579       12.6311395759
  H         9.5934183502        8.5988603390       16.7753500336
  H         8.2482230952        9.2838106777       16.7136170649
  O         8.7601834010        8.5369083105       16.2999715990
  H        13.9995745235        9.3373778620        8.3824629018
  H        13.3493371403        9.9081392042        9.6357161870
  O        13.5845365388       10.1031336769        8.7328315373
  H        15.9358890462        6.1954595220        7.9684074845
  H        15.1142663103        7.2190273155        7.3674627052
  O        15.7696862154        6.6235574946        7.1495173599
  H        12.9448632905        5.2643043993        8.4062147531
  H        12.9467107910        5.9913423358        7.0485645761
  O        12.3474223002        5.5032950809        7.6627187263
  H        11.4089125713       14.5075781548       12.8699256355
  H        11.6642988522       16.0158476427       13.4660624526
  O        12.0827022157       15.1980926367       13.0856274160
  H         5.7031797968        9.8152660704        6.8868218197
  H         6.5943248854        8.8354916196        5.9914769454
  O         5.7027081986        8.9481284548        6.4449986217
  H        10.4327633095        6.3940383936       13.8743158193
  H        10.7928838868        6.4811734797       12.3905066708
  O        10.4069212168        6.9273647956       13.1046489178
  H         9.9347261443       11.6642303726       17.3069584746
  O        10.6387635802       11.0157725850       17.6368018270
  H         8.0491967168        6.7511198165       11.6602081066
  H         7.2676546393        7.9686128319       11.4487237239
  O         7.7361877732        7.2929181324       11.0008311279
  H        15.3096876028       10.5391418580        6.4661667584
  H        14.9019273680        9.2122438596        5.7465707801
  O        15.1148672590       10.1583840195        5.6172568608
  H        13.2327515579        6.1488089755       13.6856431743
  H        13.3163575207        5.6095610819       12.2961360126
  O        13.8325780329        6.0285459041       12.9478464642
  H        10.1900003492        4.8892853046       16.4194636867
  H         9.3950698496        5.7272021741       17.4365287972
  O         9.6612782816        5.7036291243       16.5005271494
  H        14.8808309423       13.1393872725        9.5423862190
  H        15.7702057658       12.1377342623        8.8068700817
  O        14.9257882804       12.6502733610        8.7634138397
  H        10.8849825846       14.3515340687       15.4946932485
  H         9.8602246470       13.2970624693       15.0151312595
  O        10.7482586288       13.4115741767       15.3311605052
  H        16.2516967181        4.9542390061       15.7848139391
  H        15.8592185985        6.1291110042       14.8456470426
  O        16.1206766505        5.1929444685       14.8695606924
  H         9.5117251055       13.6546321461        7.3966527146
  H         9.3887628132       13.8832610176        8.9036133759
  O         9.1227582372       14.2359657113        8.0641410563
  H        14.7876203258       11.6090213031       11.4790298751
  H        15.6425089068       10.5807023801       10.8756571042
  O        15.5962587950       11.1617341340       11.5823846170
  H         7.7375616969        6.6296335234       14.5466478489
  H         6.3355612915        7.2916313651       14.7085515610
  O         6.8185476087        6.6154071297       14.1871945104