#     Step Nr.          Time[fs]        Kin.[a.u.]          Temp[K]            Pot.[a.u.]        Cons Qty[a.u.]        UsedTime[s]
         0            0.000000         0.246536574       300.000000000      -334.631506871      -334.384203887         0.000000000
         1            1.000000         0.260625255       317.143923365      -334.656273435      -334.388209793         5.632980885
         2            2.000000         0.285661580       347.609575714      -334.688353292      -334.392126177         0.631751671
         3            3.000000         0.283483700       344.959404500      -334.674726379      -334.389383929         0.552638223
