     192
 i =        0, time =        0.000, E =     -1434.8904304339
  O        -0.0003243184        0.0097002909        0.0012478714
  N        -0.0057324067       -0.0023579303       -0.0249748356
  N        -0.0100239226       -0.0054936816       -0.0047566476
  N         0.0003759738        0.0017111097        0.0133755058
  N        -0.0043484855       -0.0048129873        0.0077785032
  C         0.0236514144        0.0164740300        0.0032841954
  O         0.0777883072       -0.0642544562       -0.0087180975
  N        -0.1369237656       -0.0179539358        0.1122327402
  H        -0.0592165730        0.1142318198       -0.0487937459
  H        -0.0882694384        0.0622622204        0.0171508629
  H         0.0670998854       -0.1337422078       -0.1763240117
  H         0.1438230035        0.0404506643        0.1049673411
  O         0.0007207217       -0.0051741167       -0.0011292401
  N         0.0057273813       -0.0064646588        0.0248282096
  N         0.0098979821       -0.0089185603        0.0045282060
  N        -0.0003371277        0.0024066590       -0.0132149910
  N         0.0042299001       -0.0023590053       -0.0076325401
  C        -0.0235121770        0.0169810068       -0.0032873037
  O        -0.0777167389       -0.0607303338        0.0109261245
  N         0.1371658506       -0.0170568564       -0.1126132393
  H         0.0592118487        0.1142342715        0.0487918042
  H         0.0882628860        0.0623038457       -0.0171824621
  H        -0.0671050933       -0.1337604428        0.1763519369
  H        -0.1438564204        0.0404520664       -0.1049740252
  O         0.0003169680       -0.0097195743       -0.0012529898
  N         0.0057220308        0.0021406161        0.0249439095
  N         0.0101251952        0.0056967615        0.0046450535
  N        -0.0004804517       -0.0017086432       -0.0132822328
  N         0.0044245270        0.0047506645       -0.0078414527
  C        -0.0237027130       -0.0164075955       -0.0031958162
  O        -0.0777634865        0.0642332956        0.0087668717
  N         0.1369026523        0.0179717751       -0.1122699435
  H         0.0592036090       -0.1142153361        0.0487832055
  H         0.0882876820       -0.0622769437       -0.0171423016
  H        -0.0671012261        0.1337309349        0.1763226054
  H        -0.1438304612       -0.0404515690       -0.1049596667
  O        -0.0007679806        0.0053344330        0.0014907591
  N        -0.0057574606        0.0066598436       -0.0250629441
  N        -0.0098969657        0.0086153265       -0.0048350609
  N         0.0002163344       -0.0025492691        0.0133247645
  N        -0.0041606157        0.0024735427        0.0076579884
  C         0.0236004530       -0.0169712029        0.0033696589
  O         0.0776797869        0.0607466228       -0.0109095244
  N        -0.1371467144        0.0170106416        0.1125983170
  H        -0.0591826616       -0.1142767766       -0.0487992244
  H        -0.0882277786       -0.0622766408        0.0171666220
  H         0.0670702532        0.1337647946       -0.1763546258
  H         0.1438406784       -0.0404417781        0.1049577054
  O        -0.0003273242        0.0097134057        0.0012981147
  N        -0.0056643724       -0.0023353202       -0.0250750554
  N        -0.0100263270       -0.0056677836       -0.0046956365
  N         0.0002567317        0.0017183435        0.0133250757
  N        -0.0043293069       -0.0047667600        0.0078085968
  C         0.0237221190        0.0165950542        0.0033101779
  O         0.0777753592       -0.0643090424       -0.0086971054
  N        -0.1369209226       -0.0178575953        0.1121986927
  H        -0.0592172622        0.1142308112       -0.0487809590
  H        -0.0882750409        0.0622350144        0.0171495371
  H         0.0670888635       -0.1337650812       -0.1763374189
  H         0.1438509913        0.0404660165        0.1049677133
  O         0.0007462555       -0.0052311733       -0.0011939731
  N         0.0056315101       -0.0066542335        0.0248712372
  N         0.0098780463       -0.0088777007        0.0045451107
  N        -0.0003078139        0.0028198245       -0.0132239345
  N         0.0044220950       -0.0025617529       -0.0076729246
  C        -0.0235892884        0.0169601479       -0.0032712623
  O        -0.0779093379       -0.0606998704        0.0109745401
  N         0.1373180710       -0.0171001073       -0.1126473022
  H         0.0592190663        0.1142485699        0.0487983320
  H         0.0882976201        0.0622606296       -0.0171942321
  H        -0.0670809116       -0.1337680991        0.1763534655
  H        -0.1438716629        0.0404643409       -0.1049709708
  O         0.0003276406       -0.0096241322       -0.0011481196
  N         0.0058332240        0.0023172099        0.0248023963
  N         0.0098831945        0.0054507881        0.0047999277
  N        -0.0001942104       -0.0016106743       -0.0133281584
  N         0.0042594589        0.0046695370       -0.0078293201
  C        -0.0237586998       -0.0164140711       -0.0033290601
  O        -0.0777522209        0.0642426062        0.0086946603
  N         0.1368893716        0.0179337252       -0.1122063774
  H         0.0591913123       -0.1141849614        0.0487757065
  H         0.0882769516       -0.0622721863       -0.0171460737
  H        -0.0670902400        0.1337390791        0.1763302584
  H        -0.1438193442       -0.0404416995       -0.1049407248
  O        -0.0007788985        0.0051609178        0.0013385490
  N        -0.0059172070        0.0068004368       -0.0249473984
  N        -0.0096461843        0.0087244072       -0.0049044194
  N         0.0002095891       -0.0025247735        0.0133739561
  N        -0.0042830604        0.0023960959        0.0076326597
  C         0.0236191303       -0.0170090762        0.0034478143
  O         0.0777071943        0.0607096238       -0.0109041935
  N        -0.1371735726        0.0170501245        0.1126024673
  H        -0.0591886011       -0.1142497053       -0.0488012687
  H        -0.0882594727       -0.0622717719        0.0171617047
  H         0.0670939575        0.1337617206       -0.1763562692
  H         0.1438277432       -0.0404414628        0.1049620369
  O        -0.0003249768        0.0097208511        0.0014010409
  N        -0.0057779508       -0.0022230721       -0.0250925826
  N        -0.0100998322       -0.0056871225       -0.0047006469
  N         0.0004007174        0.0017250140        0.0133191374
  N        -0.0043361050       -0.0047834768        0.0077926729
  C         0.0237865160        0.0164503662        0.0032898271
  O         0.0777302491       -0.0642801152       -0.0087611306
  N        -0.1368709718       -0.0178468901        0.1122962284
  H        -0.0591815282        0.1142158514       -0.0487984749
  H        -0.0882655735        0.0622553055        0.0171442474
  H         0.0670859202       -0.1337656670       -0.1763396109
  H         0.1438024213        0.0404488464        0.1049434622
  O         0.0007259663       -0.0052106914       -0.0013597215
  N         0.0058438017       -0.0067268354        0.0248802800
  N         0.0099172835       -0.0085774843        0.0049463197
  N        -0.0002911064        0.0025346757       -0.0134323255
  N         0.0042915644       -0.0025189348       -0.0076402700
  C        -0.0238480471        0.0170827659       -0.0032662062
  O        -0.0777643875       -0.0606940387        0.0108947882
  N         0.1372488614       -0.0170525306       -0.1126039383
  H         0.0591869712        0.1142059283        0.0487850003
  H         0.0882535652        0.0622612383       -0.0171414418
  H        -0.0670953383       -0.1337025096        0.1763307705
  H        -0.1438143070        0.0404321817       -0.1049761667
  O         0.0004201537       -0.0097952625       -0.0012534717
  N         0.0058213467        0.0024832874        0.0249761718
  N         0.0099834563        0.0054862256        0.0048072221
  N        -0.0003695659       -0.0016133489       -0.0133914327
  N         0.0042673087        0.0048243778       -0.0077391522
  C        -0.0237618304       -0.0166082174       -0.0033743317
  O        -0.0777941797        0.0642259327        0.0087802605
  N         0.1369399911        0.0179593157       -0.1123185337
  H         0.0592255019       -0.1142143080        0.0487888771
  H         0.0882774350       -0.0622663277       -0.0171254108
  H        -0.0671014056        0.1337744593        0.1763316366
  H        -0.1438302178       -0.0404645729       -0.1049523819
  O        -0.0007168032        0.0052409940        0.0013791508
  N        -0.0057241496        0.0065627974       -0.0250044724
  N        -0.0098190378        0.0088977250       -0.0045305611
  N         0.0003066591       -0.0027269858        0.0132802959
  N        -0.0044047466        0.0025377810        0.0076455084
  C         0.0237671896       -0.0171115637        0.0031584520
  O         0.0777059990        0.0606471093       -0.0108957535
  N        -0.1372049947        0.0170352808        0.1125467376
  H        -0.0591662856       -0.1142046865       -0.0487845905
  H        -0.0881814819       -0.0622436740        0.0171832914
  H         0.0670699550        0.1337476706       -0.1763425890
  H         0.1437974674       -0.0404158178        0.1049652607
  O        -0.0003476312        0.0095975861        0.0013335759
  N        -0.0057594550       -0.0022342503       -0.0250522771
  N        -0.0100953889       -0.0054694114       -0.0047373518
  N         0.0004893942        0.0016727984        0.0133693928
  N        -0.0044241181       -0.0048444715        0.0078179488
  C         0.0236931282        0.0164948562        0.0033400391
  O         0.0777907076       -0.0642533628       -0.0087916873
  N        -0.1369363874       -0.0179314441        0.1122824500
  H        -0.0591858903        0.1142379588       -0.0487895829
  H        -0.0882556865        0.0622677372        0.0171536210
  H         0.0670826817       -0.1337587524       -0.1763278607
  H         0.1438224084        0.0404527314        0.1049652289
  O         0.0007771398       -0.0052442366       -0.0013838885
  N         0.0056356462       -0.0066244337        0.0249824699
  N         0.0100098900       -0.0086983235        0.0046716660
  N        -0.0002833830        0.0025787941       -0.0132343685
  N         0.0041950345       -0.0025638551       -0.0077531521
  C        -0.0236924418        0.0171369783       -0.0031421003
  O        -0.0777205053       -0.0606243340        0.0109549466
  N         0.1371797694       -0.0170793970       -0.1126024611
  H         0.0591982657        0.1141763039        0.0487771594
  H         0.0881999803        0.0622609160       -0.0171801964
  H        -0.0670847563       -0.1337396858        0.1763086804
  H        -0.1438163204        0.0404425661       -0.1049536709
  O         0.0003291792       -0.0097720104       -0.0012303123
  N         0.0057908236        0.0024292667        0.0248929334
  N         0.0099977907        0.0056351860        0.0047779379
  N        -0.0003062166       -0.0016758864       -0.0133861118
  N         0.0043452800        0.0045390284       -0.0076455558
  C        -0.0236914132       -0.0164081414       -0.0034628562
  O        -0.0777572874        0.0642660012        0.0087055951
  N         0.1369391766        0.0179193051       -0.1122278498
  H         0.0591743388       -0.1142478589        0.0488078726
  H         0.0882210832       -0.0622380371       -0.0171498698
  H        -0.0670979577        0.1337570999        0.1763579695
  H        -0.1438243169       -0.0404590353       -0.1049800530
  O        -0.0006579343        0.0051728192        0.0014992185
  N        -0.0058820610        0.0067552698       -0.0250937309
  N        -0.0098453144        0.0088225222       -0.0047386680
  N         0.0003106110       -0.0027951206        0.0133679475
  N        -0.0043353763        0.0026931195        0.0076391700
  C         0.0237828158       -0.0172012977        0.0032066445
  O         0.0777280860        0.0606411538       -0.0109276937
  N        -0.1371915425        0.0170842645        0.1125901732
  H        -0.0592152550       -0.1141852550       -0.0487600608
  H        -0.0882051725       -0.0622423335        0.0171476566
  H         0.0671152058        0.1336838602       -0.1763183800
  H         0.1437858364       -0.0404242312        0.1049640252
     192
 i =        1, time =        0.500, E =     -1435.1125543375
  O        -0.0020159480        0.0093820864        0.0020118675
  N        -0.0060193154       -0.0019595674       -0.0280140479
  N        -0.0098184225       -0.0059100329       -0.0082062148
  N         0.0030337119        0.0043516535        0.0153280035
  N        -0.0045729483       -0.0044930014        0.0089912245
  C         0.0203875065        0.0129328441        0.0053598928
  O         0.0697196177       -0.0597436082       -0.0079227282
  N        -0.1125562282        0.0036803907        0.1152658340
  H        -0.0490687141        0.0941956038       -0.0397487558
  H        -0.0788605122        0.0559552447        0.0156403665
  H         0.0627076224       -0.1253009027       -0.1659206080
  H         0.1119379747        0.0316493039        0.0827293898
  O         0.0000060345       -0.0047325244       -0.0022887136
  N         0.0062130693       -0.0073222734        0.0245565739
  N         0.0079240964       -0.0076335269        0.0064744909
  N         0.0013440943        0.0016619264       -0.0134496742
  N         0.0026451131       -0.0013774338       -0.0121238541
  C        -0.0209811333        0.0154117021        0.0005506978
  O        -0.0613256446       -0.0438378776        0.0084906544
  N         0.1272122842       -0.0256693141       -0.0803302228
  H         0.0516998481        0.0988800698        0.0435920725
  H         0.0703877111        0.0472639689       -0.0144400273
  H        -0.0532333625       -0.1084072288        0.1435755493
  H        -0.1378952388        0.0368488994       -0.1000045470
  O         0.0015707084       -0.0098724567       -0.0022896343
  N         0.0073166297        0.0032084254        0.0271062611
  N         0.0080984336        0.0041496755        0.0052984912
  N         0.0020778699       -0.0001207408       -0.0133127160
  N         0.0018383445        0.0030414144       -0.0108203479
  C        -0.0223678026       -0.0142676890       -0.0014297258
  O        -0.0892304761        0.0682978302        0.0114706510
  N         0.1051408504        0.0360518556       -0.1118454868
  H         0.0625446185       -0.1211619150        0.0506578578
  H         0.0963179754       -0.0695279091       -0.0173066783
  H        -0.0578717431        0.1179454209        0.1550935494
  H        -0.1205829615       -0.0325232477       -0.0889007036
  O        -0.0006950690        0.0055308740        0.0023077854
  N        -0.0059128153        0.0074022326       -0.0253413141
  N        -0.0088816061        0.0083302046       -0.0042109333
  N        -0.0009517239       -0.0025560481        0.0121689066
  N        -0.0023481707        0.0025278787        0.0056864016
  C         0.0215642314       -0.0163935328        0.0051711933
  O         0.0678986740        0.0566958410       -0.0091148856
  N        -0.1062361187        0.0000782120        0.1037764734
  H        -0.0470124509       -0.0902141837       -0.0401395713
  H        -0.0799910237       -0.0554742977        0.0168228883
  H         0.0593877672        0.1160310825       -0.1540886979
  H         0.1099802461       -0.0317818625        0.0810086071
  O        -0.0004254926        0.0086643676       -0.0001406819
  N        -0.0059666127       -0.0021766679       -0.0234703998
  N        -0.0062001870       -0.0031505140       -0.0015513634
  N         0.0019919542        0.0030278001        0.0111326590
  N        -0.0071038019       -0.0068653363        0.0101132291
  C         0.0182504607        0.0135361901       -0.0006456293
  O         0.0797197882       -0.0656554059       -0.0090579115
  N        -0.1101734801       -0.0108246733        0.1041162491
  H        -0.0503054148        0.0980758203       -0.0417655548
  H        -0.0890102376        0.0630311083        0.0167456737
  H         0.0572857484       -0.1157901324       -0.1548907968
  H         0.1175657079        0.0322682937        0.0856712065
  O         0.0012377772       -0.0053128530        0.0031524172
  N         0.0026289678       -0.0036832050        0.0167748223
  N         0.0120016867       -0.0100108124        0.0053993485
  N         0.0002168646        0.0020004723       -0.0149493435
  N         0.0058297978       -0.0028857116       -0.0097470290
  C        -0.0260353858        0.0177528859        0.0039467230
  O        -0.0652549155       -0.0552463209        0.0090514990
  N         0.1077761346       -0.0269022227       -0.0972840905
  H         0.0558378637        0.1109267632        0.0476860250
  H         0.0784868326        0.0544328178       -0.0170261581
  H        -0.0569484909       -0.1144798903        0.1504669888
  H        -0.1236580933        0.0362042867       -0.0910209680
  O         0.0015074157       -0.0095044386       -0.0057457903
  N         0.0061766958        0.0024687748        0.0302258068
  N         0.0091574028        0.0060243873        0.0078256267
  N        -0.0026832036       -0.0043726409       -0.0127192576
  N         0.0042066909        0.0052060162       -0.0142821823
  C        -0.0186496501       -0.0138471845        0.0000566328
  O        -0.0782483816        0.0655768773        0.0072462888
  N         0.1231080603        0.0247849715       -0.0850106565
  H         0.0540833179       -0.1026553060        0.0461045376
  H         0.0889046494       -0.0624915069       -0.0166615565
  H        -0.0558378740        0.1118158907        0.1474182817
  H        -0.1369754773       -0.0377128812       -0.0997232522
  O        -0.0019453473        0.0050456797        0.0019080723
  N        -0.0057555466        0.0071053895       -0.0270793184
  N        -0.0091677910        0.0087534220       -0.0029362876
  N        -0.0006496744       -0.0021755186        0.0107650626
  N        -0.0033545598        0.0021935331        0.0100915071
  C         0.0257383580       -0.0185916061        0.0017398721
  O         0.0801942414        0.0596581091       -0.0116107242
  N        -0.1134914536        0.0232137142        0.0972016738
  H        -0.0555498004       -0.1048342428       -0.0457510311
  H        -0.0897094449       -0.0631138325        0.0168768761
  H         0.0575439292        0.1150141521       -0.1493258970
  H         0.1251620110       -0.0352046671        0.0916081359
  O         0.0013869346        0.0101535252        0.0014426957
  N        -0.0086266968       -0.0030511485       -0.0234397458
  N        -0.0080840694       -0.0039559056       -0.0026421378
  N         0.0015145151        0.0019540055        0.0132187823
  N        -0.0101097205       -0.0074928831        0.0099179707
  C         0.0281854827        0.0177423290       -0.0022276251
  O         0.0756743718       -0.0599558854       -0.0089395837
  N        -0.0843052383       -0.0362533533        0.0944288430
  H        -0.0572336724        0.1082903788       -0.0475787612
  H        -0.0857255261        0.0596706206        0.0175899370
  H         0.0504582208       -0.1002645041       -0.1331996981
  H         0.1066778989        0.0296549364        0.0788725580
  O         0.0039053193       -0.0055283746       -0.0001018311
  N         0.0027304287       -0.0043519531        0.0195625039
  N         0.0157968818       -0.0122149181        0.0096047922
  N        -0.0032240050        0.0037243884       -0.0121407344
  N         0.0028403544       -0.0003890452       -0.0074465914
  C        -0.0237701121        0.0162411612       -0.0047299012
  O        -0.0773076847       -0.0601096470        0.0092788306
  N         0.1064794631       -0.0192333057       -0.0991330130
  H         0.0548224662        0.1030647479        0.0460374367
  H         0.0883031177        0.0616237802       -0.0164583770
  H        -0.0578528388       -0.1136637297        0.1482815725
  H        -0.1195429919        0.0339890927       -0.0871720763
  O         0.0014142902       -0.0090872593        0.0018623786
  N         0.0018207904       -0.0001266807        0.0179549036
  N         0.0135145019        0.0084021983        0.0087236324
  N        -0.0016258815       -0.0032153788       -0.0148702772
  N         0.0020581730        0.0037102137       -0.0036363241
  C        -0.0202060376       -0.0141031283       -0.0056996022
  O        -0.0763377522        0.0615564561        0.0062361782
  N         0.1109587313        0.0257218962       -0.0988293310
  H         0.0560976698       -0.1076291163        0.0469861032
  H         0.0856693254       -0.0591231064       -0.0166898276
  H        -0.0567426480        0.1144218646        0.1526229199
  H        -0.1245373315       -0.0359565541       -0.0912881994
  O        -0.0004348795        0.0053805272        0.0014789828
  N        -0.0059395286        0.0056649286       -0.0242583554
  N        -0.0088900499        0.0087771975       -0.0028053902
  N        -0.0010265713       -0.0020013599        0.0128270023
  N        -0.0038888363        0.0026939667        0.0025681164
  C         0.0246434797       -0.0173617637        0.0062806467
  O         0.0628749171        0.0488516405       -0.0079053322
  N        -0.1417308877        0.0086119469        0.0862383249
  H        -0.0482448214       -0.0907832378       -0.0410159371
  H        -0.0734878490       -0.0496064795        0.0150282653
  H         0.0604127093        0.1197757379       -0.1579053712
  H         0.1439178383       -0.0419552816        0.1048993363
  O        -0.0008862788        0.0097751402       -0.0013133731
  N        -0.0054511205       -0.0016205499       -0.0244023914
  N        -0.0131952634       -0.0082659403       -0.0001339998
  N        -0.0023677021       -0.0003963829        0.0102912495
  N        -0.0026333917       -0.0036963722        0.0071542393
  C         0.0296353251        0.0208359171        0.0041412319
  O         0.0720502229       -0.0591034043       -0.0064188492
  N        -0.1151523714       -0.0141727656        0.0720699007
  H        -0.0442143323        0.0844299457       -0.0378240798
  H        -0.0827099707        0.0577809964        0.0156744313
  H         0.0493766068       -0.1013046859       -0.1337914819
  H         0.1249473861        0.0346054188        0.0911404318
  O        -0.0011481057       -0.0046369005       -0.0010407476
  N         0.0067011086       -0.0072377650        0.0202273376
  N         0.0087303598       -0.0076964735        0.0068327862
  N         0.0008615063        0.0016536263       -0.0155160137
  N         0.0044221482       -0.0026791371       -0.0068003265
  C        -0.0238536934        0.0179503556        0.0013797519
  O        -0.0842162834       -0.0648157332        0.0112759488
  N         0.1132365895       -0.0154183092       -0.1106822279
  H         0.0556407837        0.1073588137        0.0467410862
  H         0.0933987272        0.0669022098       -0.0181268994
  H        -0.0598455499       -0.1226597204        0.1623638644
  H        -0.1224956629        0.0334325135       -0.0902172076
  O         0.0007874929       -0.0103779351        0.0003151139
  N         0.0079649986        0.0047268552        0.0211915631
  N         0.0071534481        0.0036099918        0.0069760482
  N         0.0037612085        0.0016338176       -0.0130359038
  N         0.0003714354        0.0024622880       -0.0100854191
  C        -0.0259571447       -0.0190280410       -0.0004783387
  O        -0.0623452112        0.0503062480        0.0059351061
  N         0.0992579098        0.0196788967       -0.1177431543
  H         0.0585266010       -0.1125688286        0.0481436031
  H         0.0716952102       -0.0487745579       -0.0145778730
  H        -0.0599978114        0.1203756014        0.1588534665
  H        -0.1115822886       -0.0304319429       -0.0818102622
  O        -0.0018883271        0.0054234400        0.0021566024
  N        -0.0002452663        0.0028485614       -0.0245904428
  N        -0.0172011601        0.0126139338       -0.0026988346
  N        -0.0000246544       -0.0012082495        0.0112125207
  N        -0.0035948275        0.0010326413        0.0085740061
  C         0.0252873292       -0.0181122792       -0.0003429439
  O         0.0717893444        0.0581363830       -0.0065278114
  N        -0.1336680306        0.0007433387        0.1107893921
  H        -0.0524373087       -0.1005825647       -0.0441048203
  H        -0.0857400610       -0.0579062778        0.0169652336
  H         0.0660371057        0.1340465188       -0.1776888150
  H         0.1379650198       -0.0385918437        0.0993205022
     192
 i =        2, time =        1.000, E =     -1435.5650671631
  O        -0.0034789056        0.0086562968        0.0019943609
  N        -0.0061546512       -0.0015615301       -0.0293730446
  N        -0.0092667865       -0.0060205797       -0.0116331778
  N         0.0057085739        0.0069277967        0.0166879816
  N        -0.0047148140       -0.0041206138        0.0098610170
  C         0.0165018517        0.0090234204        0.0072230378
  O         0.0498548888       -0.0464145895       -0.0046416035
  N        -0.0648688050        0.0136060588        0.0825583423
  H        -0.0327474152        0.0617044607       -0.0254982721
  H        -0.0584589714        0.0406083358        0.0124074149
  H         0.0429196264       -0.0884033936       -0.1162390295
  H         0.0668652035        0.0187572522        0.0514820790
  O        -0.0008604781       -0.0041432091       -0.0025126476
  N         0.0064286720       -0.0078229998        0.0228146409
  N         0.0058060196       -0.0064109664        0.0082663885
  N         0.0029029724        0.0007008070       -0.0132040865
  N         0.0009071244       -0.0001639418       -0.0163672104
  C        -0.0176753142        0.0132925815        0.0043747480
  O        -0.0376620237       -0.0218433846        0.0057830329
  N         0.0892914162       -0.0307685456       -0.0378194982
  H         0.0367462528        0.0681467136        0.0328082179
  H         0.0457690474        0.0265987653       -0.0118977098
  H        -0.0314878037       -0.0631624091        0.0865356644
  H        -0.1048569050        0.0254949551       -0.0752619481
  O         0.0028400919       -0.0097447111       -0.0025651172
  N         0.0086400213        0.0039883915        0.0277329961
  N         0.0059132644        0.0025988535        0.0059556717
  N         0.0045252732        0.0015810811       -0.0127288733
  N        -0.0007843486        0.0011197236       -0.0135816133
  C        -0.0203934452       -0.0116431657        0.0005711345
  O        -0.0827638901        0.0584536336        0.0113800108
  N         0.0538276805        0.0495353405       -0.0830236474
  H         0.0540599916       -0.1038107947        0.0434043133
  H         0.0872467888       -0.0624089879       -0.0155176419
  H        -0.0364528906        0.0773586098        0.1022174765
  H        -0.0790599642       -0.0200206031       -0.0600324836
  O        -0.0005326600        0.0059895153        0.0024783638
  N        -0.0058040996        0.0079223485       -0.0242586267
  N        -0.0077016041        0.0077833599       -0.0037162682
  N        -0.0019900578       -0.0025485368        0.0106311662
  N        -0.0004710946        0.0026051496        0.0033055266
  C         0.0188091317       -0.0152275465        0.0070018319
  O         0.0463388304        0.0432615948       -0.0050324122
  N        -0.0563142832       -0.0084809513        0.0682762867
  H        -0.0285932589       -0.0555398725       -0.0272919539
  H        -0.0607370301       -0.0389354484        0.0146859912
  H         0.0384232741        0.0746390761       -0.1006022879
  H         0.0648029439       -0.0187148780        0.0479783510
  O        -0.0005343617        0.0070011268       -0.0024602060
  N        -0.0059871764       -0.0019333290       -0.0203850967
  N        -0.0022412052       -0.0007181778        0.0015494740
  N         0.0038479764        0.0044213223        0.0084929466
  N        -0.0098351703       -0.0089262380        0.0118727264
  C         0.0122504077        0.0102222901       -0.0043797772
  O         0.0664270560       -0.0549660628       -0.0070082215
  N        -0.0620959591       -0.0085627515        0.0715248735
  H        -0.0340388008        0.0671405773       -0.0300134028
  H        -0.0750338876        0.0515162582        0.0145874368
  H         0.0354867867       -0.0742405425       -0.1019863622
  H         0.0752408568        0.0203286176        0.0543021412
  O         0.0015466500       -0.0053645373        0.0084009532
  N        -0.0005390585       -0.0007154852        0.0074857088
  N         0.0138055931       -0.0110472486        0.0060723736
  N         0.0006938494        0.0013329897       -0.0161225345
  N         0.0072939409       -0.0032129097       -0.0116823495
  C        -0.0278569730        0.0180180088        0.0112418251
  O        -0.0420343604       -0.0407057342        0.0047690143
  N         0.0553828831       -0.0341697316       -0.0604206975
  H         0.0422105364        0.0875557041        0.0385126272
  H         0.0585803264        0.0370884680       -0.0148841579
  H        -0.0346165171       -0.0725911119        0.0964236071
  H        -0.0829506037        0.0270610609       -0.0620911587
  O         0.0027591875       -0.0088367425       -0.0092521354
  N         0.0064173052        0.0025029143        0.0336179279