#     Step Nr.          Time[fs]        Kin.[a.u.]          Temp[K]            Pot.[a.u.]        Cons Qty[a.u.]        UsedTime[s]
         0            0.000000         0.270509287       298.150000000     -1434.890430434     -1423.113274920         0.000000000
         1            0.500000         0.479498232       528.493491743     -1435.112554337     -1423.126030681        83.453355431
         2            1.000000         0.912615879      1005.867217728     -1435.565067163     -1423.145191274         9.512562810
         3            1.500000         1.288595822      1420.264893143     -1435.949289652     -1423.153337717         8.374228416
         4            2.000000         1.448048957      1596.010993008     -1436.105922341     -1423.150511726         8.403625603
         5            2.500000         1.390457558      1532.534889466     -1436.041562293     -1423.143753361         8.440521950
         6            3.000000         1.191243695      1312.965299372     -1435.836195657     -1423.137547390         8.425562744
         7            3.500000         0.932162631      1027.411262168     -1435.572982185     -1423.133231174         8.508526123
         8            4.000000         0.674429735       743.343148291     -1435.313037878     -1423.130658398         8.454226865
         9            4.500000         0.456403263       503.038672115     -1435.094231704     -1423.129314540         8.428309161
        10            5.000000         0.298943461       329.489585377     -1434.936965694     -1423.128735307         8.459636181
