     192
 i =        0, time =        0.000, E =     -1434.8904304339
  O         9.3201698400        4.8661372300        1.2069796500
  N         9.2300856800        4.8664897700        2.5287230200
  N         8.2502931000        4.2173424300        3.1775693400
  N         8.4503618500        4.4236970200        4.4546097600
  N         9.5442289500        5.2035199200        4.6539430900
  C        10.0138898700        5.4703942100        3.4324545900
  O         0.5343503100        3.3966246600        0.6982548500
  N         0.2876183800        4.1381380000       12.9945724500
  H        -0.0761795900        4.9214863200       12.6919779200
  H        10.7243738100        3.9754986200        0.7907978000
  H         0.5639271200        3.6429340000       12.3455954100
  H         2.1675673800        4.3491931400        0.4052021800
  O         1.2714574500       10.7418372300        2.0607798500
  N         1.3615416100       10.7421897700        0.7390364900
  N         2.3413341900       10.0930424300        0.0901901600
  N         0.9813746200       10.2993970200       11.8841877700
  N        -0.1124924800       11.0792199200       11.6848544400
  C        -0.5821534000       11.3460942100       12.9063429500
  O         4.6164769800        9.2723246600        2.5695046500
  N         3.7033180900       10.0138380000        3.3442250800
  H         4.0671160600       10.7971863200        3.6468196100
  H         5.3080534900        9.8511986200        2.4769617100
  H         3.4270093500        9.5186340000        3.9932021200
  H         2.9832599100       10.2248931400        2.8625573300
  O         0.9814847500        6.8852627700        5.3285393600
  N         1.0715689100        6.8849102300        4.0067960000
  N         2.0513614900        7.5340575700        3.3579496700
  N         1.8512927400        7.3277029800        2.0809092500
  N         0.7574256400        6.5478800800        1.8815759200
  C         0.2877647200        6.2810057900        3.1030644300
  O         4.3265042800        8.3547753400        5.8372641600
  N         3.4133453900        7.6132620000        6.6119845800
  H         3.7771433500        6.8299136800        6.9145791100
  H         5.0180807800        7.7759013800        5.7447212100
  H         3.1370366500        8.1084660000        7.2609616200
  H         2.6932872000        7.4022068600        6.1303168300
  O         8.4502517200        1.0095627700       11.0102581700
  N         8.3601675600        1.0092102300       12.3320015300
  N         7.3803749800        1.6583575700       12.9808478600
  N         8.7403345500        1.4520029800        1.1868502500
  N         9.8342016600        0.6721800800        1.3861835800
  C        10.3038625800        0.4053057900        0.1646950800
  O         0.2443776100        2.4790753400        3.9660143600
  N         1.1575365000        1.7375620000        3.1912939300
  H         0.7937385300        0.9542136800        2.8886994000
  H        10.4344011000        1.9002013800        4.0585573100
  H         1.4338452300        2.2327660000        2.5423169000
  H         1.8775946800        1.5265068600        3.6729616800
  O         3.8793698400        4.8661372300        1.2069796500
  N         3.7892856800        4.8664897700        2.5287230200
  N         2.8094931000        4.2173424300        3.1775693400
  N         3.0095618500        4.4236970200        4.4546097600
  N         4.1034289500        5.2035199200        4.6539430900
  C         4.5730898700        5.4703942100        3.4324545900
  O         5.9751503100        3.3966246600        0.6982548500
  N         5.7284183800        4.1381380000       12.9945724500
  H         5.3646204100        4.9214863200       12.6919779200
  H         5.2835738100        3.9754986200        0.7907978000
  H         6.0047271200        3.6429340000       12.3455954100
  H         7.6083673800        4.3491931400        0.4052021800
  O         6.7122574500       10.7418372300        2.0607798500
  N         6.8023416100       10.7421897700        0.7390364900
  N         7.7821341900       10.0930424300        0.0901901600
  N         6.4221746200       10.2993970200       11.8841877700
  N         5.3283075200       11.0792199200       11.6848544400
  C         4.8586466000       11.3460942100       12.9063429500
  O        10.0572769800        9.2723246600        2.5695046500
  N         9.1441180900       10.0138380000        3.3442250800
  H         9.5079160600       10.7971863200        3.6468196100
  H        -0.1327465100        9.8511986200        2.4769617100
  H         8.8678093500        9.5186340000        3.9932021200
  H         8.4240599100       10.2248931400        2.8625573300
  O         6.4222847500        6.8852627700        5.3285393600
  N         6.5123689100        6.8849102300        4.0067960000
  N         7.4921614900        7.5340575700        3.3579496700
  N         7.2920927400        7.3277029800        2.0809092500
  N         6.1982256400        6.5478800800        1.8815759200
  C         5.7285647200        6.2810057900        3.1030644300
  O         9.7673042800        8.3547753400        5.8372641600
  N         8.8541453900        7.6132620000        6.6119845800
  H         9.2179433500        6.8299136800        6.9145791100
  H        -0.4227192200        7.7759013800        5.7447212100
  H         8.5778366500        8.1084660000        7.2609616200
  H         8.1340872000        7.4022068600        6.1303168300
  O         3.0094517200        1.0095627700       11.0102581700
  N         2.9193675600        1.0092102300       12.3320015300
  N         1.9395749800        1.6583575700       12.9808478600
  N         3.2995345500        1.4520029800        1.1868502500
  N         4.3934016600        0.6721800800        1.3861835800
  C         4.8630625800        0.4053057900        0.1646950800
  O         5.6851776100        2.4790753400        3.9660143600
  N         6.5983365000        1.7375620000        3.1912939300
  H         6.2345385300        0.9542136800        2.8886994000
  H         4.9936011000        1.9002013800        4.0585573100
  H         6.8746452300        2.2327660000        2.5423169000
  H         7.3183946800        1.5265068600        3.6729616800
  O         8.7402244300        4.8661372300        7.7424986600
  N         8.6501402700        4.8664897700        9.0642420300
  N         7.6703476900        4.2173424300        9.7130883600
  N         7.8704164400        4.4236970200       10.9901287700
  N         8.9642835400        5.2035199200       11.1894621000
  C         9.4339444600        5.4703942100        9.9679736000
  O        -0.0455951000        3.3966246600        7.2337738600
  N         0.8675637900        4.1381380000        6.4590534400
  H         0.5037658200        4.9214863200        6.1564589100
  H        10.1444283900        3.9754986200        7.3263168100
  H         1.1438725300        3.6429340000        5.8100764000
  H         1.5876219700        4.3491931400        6.9407211900
  O         0.6915120400       10.7418372300        8.5962988700
  N         0.7815962000       10.7421897700        7.2745555000
  N         1.7613887800       10.0930424300        6.6257091700
  N         1.5613200400       10.2993970200        5.3486687600
  N         0.4674529300       11.0792199200        5.1493354300
  C        -0.0022079900       11.3460942100        6.3708239300
  O         4.0365315700        9.2723246600        9.1050236700
  N         3.1233726800       10.0138380000        9.8797440900
  H         3.4871706500       10.7971863200       10.1823386200
  H         4.7281080800        9.8511986200        9.0124807200
  H         2.8470639400        9.5186340000       10.5287211300
  H         2.4033145000       10.2248931400        9.3980763400
  O         0.4015509300        6.8852627700       11.8639276600
  N         0.4916235000        6.8849102300       10.5423150100
  N         1.4714160800        7.5340575700        9.8934686800
  N         1.2713473300        7.3277029800        8.6164282700
  N         0.1774802200        6.5478800800        8.4170949400
  C        -0.2921806900        6.2810057900        9.6385834400
  O         3.7465588600        8.3547753400       12.3727831700
  N         3.9932908000        7.6132620000        0.0764655700
  H         4.3570887700        6.8299136800        0.3790601000
  H         4.4381353700        7.7759013800       12.2802402200
  H         3.7169820600        8.1084660000        0.7254426100
  H         2.1133417900        7.4022068600       12.6658358500
  O         9.0301971400        1.0095627700        4.4747391600
  N         8.9401129800        1.0092102300        5.7964825200
  N         7.9603204000        1.6583575700        6.4453288500
  N         8.1603891400        1.4520029800        7.7223692600
  N         9.2542562500        0.6721800800        7.9217025900
  C         9.7239171600        0.4053057900        6.7002140900
  O        -0.3355678100        2.4790753400       10.5015333700
  N         0.5775910800        1.7375620000        9.7268129500
  H         0.2137931200        0.9542136800        9.4242184200
  H         9.8544556900        1.9002013800       10.5940763200
  H         0.8538998200        2.2327660000        9.0778359100
  H         1.2976492700        1.5265068600       10.2084807000
  O         3.2994244300        4.8661372300        7.7424986600
  N         3.2093402700        4.8664897700        9.0642420300
  N         2.2295476900        4.2173424300        9.7130883600
  N         2.4296164400        4.4236970200       10.9901287700
  N         3.5234835400        5.2035199200       11.1894621000
  C         3.9931444600        5.4703942100        9.9679736000
  O         5.3952049000        3.3966246600        7.2337738600
  N         6.3083637900        4.1381380000        6.4590534400
  H         5.9445658200        4.9214863200        6.1564589100
  H         4.7036283900        3.9754986200        7.3263168100
  H         6.5846725300        3.6429340000        5.8100764000
  H         7.0284219700        4.3491931400        6.9407211900
  O         6.1323120400       10.7418372300        8.5962988700
  N         6.2223962000       10.7421897700        7.2745555000
  N         7.2021887800       10.0930424300        6.6257091700
  N         7.0021200400       10.2993970200        5.3486687600
  N         5.9082529300       11.0792199200        5.1493354300
  C         5.4385920100       11.3460942100        6.3708239300
  O         9.4773315700        9.2723246600        9.1050236700
  N         8.5641726800       10.0138380000        9.8797440900
  H         8.9279706500       10.7971863200       10.1823386200
  H        -0.7126919200        9.8511986200        9.0124807200
  H         8.2878639400        9.5186340000       10.5287211300
  H         7.8441145000       10.2248931400        9.3980763400
  O         5.8423509300        6.8852627700       11.8639276600
  N         5.9324235000        6.8849102300       10.5423150100
  N         6.9122160800        7.5340575700        9.8934686800
  N         6.7121473300        7.3277029800        8.6164282700
  N         5.6182802200        6.5478800800        8.4170949400
  C         5.1486193100        6.2810057900        9.6385834400
  O         9.1873588600        8.3547753400       12.3727831700
  N         9.4340908000        7.6132620000        0.0764655700
  H         9.7978887700        6.8299136800        0.3790601000
  H        -1.0026646300        7.7759013800       12.2802402200
  H         9.1577820600        8.1084660000        0.7254426100
  H         7.5541417900        7.4022068600       12.6658358500
  O         3.5893971400        1.0095627700        4.4747391600
  N         3.4993129800        1.0092102300        5.7964825200
  N         2.5195204000        1.6583575700        6.4453288500
  N         2.7195891400        1.4520029800        7.7223692600
  N         3.8134562500        0.6721800800        7.9217025900
  C         4.2831171600        0.4053057900        6.7002140900
  O         5.1052321900        2.4790753400       10.5015333700
  N         6.0183910800        1.7375620000        9.7268129500
  H         5.6545931200        0.9542136800        9.4242184200
  H         4.4136556900        1.9002013800       10.5940763200
  H         6.2946998200        2.2327660000        9.0778359100
  H         6.7384492700        1.5265068600       10.2084807000
     192
 i =        1, time =        0.500, E =     -1435.1125543375
  O         9.3236139821        4.8646286886        1.2071085495
  N         9.2310791979        4.8648620973        2.5311685448
  N         8.2499371114        4.2156823083        3.1790699211
  N         8.4467509186        4.4210143312        4.4527271520
  N         9.5413272320        5.2053762540        4.6515948511
  C        10.0131593193        5.4750736183        3.4305385347
  O         0.5336709318        3.3997733779        0.6967457210
  N         0.2880957239        4.1369175839       12.9978789466
  H        -0.0800810676        4.9313356526       12.6797468022
  H        10.7130885223        3.9775541268        0.7990484885
  H         0.5666567349        3.6488605070       12.3355211034
  H         2.1920869108        4.3568167947        0.4141672371
  O         1.2709607630       10.7393128994        2.0625817922
  N         1.3605772122       10.7435570812        0.7394869777
  N         2.3423448850       10.0935270294        0.0892782800
  N         0.9793404005       10.3013203404       11.8849770039
  N        -0.1117997525       11.0790107412       11.6890766521
  C        -0.5855399425       11.3462583037       12.9051550985
  O         4.6187729371        9.2724015254        2.5679292127
  N         3.6975369295       10.0135013803        3.3436085710
  H         4.0619004020       10.8111728126        3.6445074346
  H         5.3251368085        9.8635831172        2.4861601196
  H         3.4268217189        9.4985967433        4.0077934574
  H         2.9769524747       10.2284003475        2.8561396397
  O         0.9777601740        6.8848225877        5.3295579734
  N         1.0685308343        6.8851249902        4.0058431487
  N         2.0508899530        7.5370105431        3.3596625435
  N         1.8495375739        7.3291996594        2.0827178965
  N         0.7616300375        6.5505425734        1.8838855595
  C         0.2881861524        6.2788758636        3.1011495946
  O         4.3295720088        8.3565096023        5.8355785936
  N         3.4108273457        7.6109721385        6.6115516955
  H         3.7665932797        6.8296386573        6.9138739569
  H         5.0193925576        7.7865953381        5.7478017171
  H         3.1327239590        8.1144306879        7.2713934506
  H         2.6721644221        7.3994510684        6.1249176234
  O         8.4501049650        1.0091207889       11.0069782485
  N         8.3584843924        1.0061473718       12.3306684011
  N         7.3785678742        1.6566324578       12.9799398851
  N         8.7406769831        1.4503755892        1.1864164038
  N         9.8303668518        0.6682823188        1.3857659663
  C        10.3031493725        0.4037070495        0.1621228638
  O         0.2456946960        2.4796762087        3.9617938609
  N         1.1577719289        1.7406275450        3.1917354752
  H         0.7776391908        0.9450451911        2.8828335004
  H        10.4338634624        1.8921063519        4.0620945423
  H         1.4424907449        2.2405329692        2.5311637642
  H         1.8954852492        1.5157145442        3.6887893327
  O         3.8802048907        4.8704529341        1.2087048605
  N         3.7891336716        4.8667083956        2.5288107917
  N         2.8058266150        4.2166366148        3.1736637735
  N         3.0074562204        4.4215482587        4.4540113394
  N         4.1057353049        5.2029476226        4.6525392532
  C         4.5770812122        5.4693557959        3.4352848704
  O         5.9756728527        3.3960512831        0.7006925145
  N         5.7278966718        4.1364940791       12.9941749311
  H         5.3564800142        4.9336899993       12.6977410904
  H         5.2819282730        3.9706229323        0.7927596579
  H         6.0068590125        3.6356472365       12.3317795361
  H         7.6251434038        4.3452369593        0.4177588834
  O         6.7099327995       10.7439752066        2.0573464880
  N         6.8022209442       10.7406974289        0.7413243511
  N         7.7802006756       10.0949670755        0.0922183522
  N         6.4241360790       10.3007891730       11.8871805537
  N         5.3287353366       11.0796272364       11.6847816755
  C         4.8601202045       11.3467539243       12.9004799950
  O        10.0579760374        9.2741074791        2.5733838449
  N         9.1440521920       10.0118971189        3.3419338738
  H         9.5160479683       10.7902731606        3.6545525256
  H        -0.1328404948        9.8668887517        2.4691685696
  H         8.8563439521        9.5056796169        3.9997833496
  H         8.4084206140       10.2128483890        2.8525513207
  O         6.4198648052        6.8821478097        5.3318332134
  N         6.5106791573        6.8850705887        4.0033120631
  N         7.4925897871        7.5334328325        3.3549108341
  N         7.2921041252        7.3321808541        2.0791337701
  N         6.1968011678        6.5498035848        1.8852556328
  C         5.7235548502        6.2818641344        3.1003155743
  O         9.7661452581        8.3513958561        5.8366422979
  N         8.8528711592        7.6157104522        6.6128327666
  H         9.2128038442        6.8195033362        6.9129718806
  H        -0.4208230511        7.7761390911        5.7513163677
  H         8.5721754778        8.1293207212        7.2701522025
  H         8.1314967156        7.3932895895        6.1283566513
  O         3.0123939467        1.0111962094       11.0082092453
  N         2.9182730612        1.0097963191       12.3314277892
  N         1.9375834460        1.6576694785       12.9786558826
  N         3.3003825617        1.4521650668        1.1868948122
  N         4.3924056835        0.6720019730        1.3818204924
  C         4.8622426989        0.4065383472        0.1623155862
  O         5.6830455082        2.4794598057        3.9684237500
  N         6.5982282916        1.7378337189        3.1910832614
  H         6.2369724550        0.9508259142        2.8737537046
  H         4.9910745866        1.9018506625        4.0524632677
  H         6.8779400060        2.2456851147        2.5312614098
  H         7.3268750148        1.5161883651        3.6808157360
  O         8.7374726092        4.8640846617        7.7412834584
  N         8.6518967662        4.8643422669        9.0629970007
  N         7.6703038163        4.2144664169        9.7120168944
  N         7.8706819721        4.4223865188       10.9897506602
  N         8.9695774579        5.2050320634       11.1892841958
  C         9.4295058432        5.4712350579        9.9710607280
  O        -0.0436491412        3.3919643441        7.2365029957
  N         0.8631603679        4.1400411581        6.4590900229
  H         0.4984515374        4.9287867865        6.1597845520
  H        10.1481517569        3.9752763023        7.3362071478
  H         1.1563373446        3.6239197678        5.7952270185
  H         1.6074871429        4.3625505999        6.9533509798
  O         0.6854382361       10.7405678497        8.5958882697
  N         0.7819516364       10.7418480674        7.2763717018
  N         1.7560986399       10.0955180384        6.6206631319
  N         1.5626074912       10.2992256145        5.3451001960
  N         0.4670210502       11.0772896442        5.1481200714
  C        -0.0011463281       11.3484182592        6.3709817609
  O         4.0355552050        9.2734089669        9.1012734465
  N         3.1264283655       10.0117902206        9.8795608441
  H         3.4934678086       10.8001613445       10.1900722377
  H         4.7320834821        9.8471422324        9.0145933704
  H         2.8433426820        9.5026080368       10.5378293895
  H         2.3975689172       10.2420468049        9.3857752857
  O         0.3993205111        6.8854992785       11.8625882771
  N         0.4936468367        6.8836976779       10.5448289730
  N         1.4688431216        7.5308527739        9.8908835636
  N         1.2718757824        7.3269317941        8.6165933613
  N         0.1793978623        6.5446231578        8.4146293158
  C        -0.2938918958        6.2780685543        9.6400686732
  O         3.7434123553        8.3576658390       12.3728713483
  N         3.9933800385        7.6128255938        0.0754135942
  H         4.3762595701        6.8316374249        0.3731164233
  H         4.4402678664        7.7801315955       12.2867001243
  H         3.7106212114        8.1186936886        0.7343855615
  H         2.0959681658        7.3952150604       12.6669113390
  O         9.0294247187        1.0104163271        4.4744112765
  N         8.9408786444        1.0120507718        5.7964760284
  N         7.9596110187        1.6584572879        6.4456945079
  N         8.1635020622        1.4529164064        7.7240883984
  N         9.2550888154        0.6720139345        7.9260956748
  C         9.7230533476        0.4056391754        6.6989391545
  O        -0.3322736691        2.4799374278       10.5016554124
  N         0.5781275326        1.7367899019        9.7249928218
  H         0.1974836929        0.9425516003        9.4159142190
  H         9.8415653588        1.8964613731       10.5920701547
  H         0.8578883636        2.2419008920        9.0699127741
  H         1.2932306997        1.5174712345       10.2093465819
  O         3.3001603889        4.8650934730        7.7443080743
  N         3.2090687667        4.8648139063        9.0636099901
  N         2.2310640475        4.2203837522        9.7085042388
  N         2.4313521930        4.4247739287       10.9905580478
  N         3.5218373264        5.2010012692       11.1887862277
  C         3.9900035817        5.4668945380        9.9666026899
  O         5.3939833356        3.3935957317        7.2369976710
  N         6.3062480787        4.1333356822        6.4621411299
  H         5.9406204279        4.9396481670        6.1468788002
  H         4.6922328461        3.9683429113        7.3270569049
  H         6.5887988180        3.6141277546        5.7966587866
  H         7.0410944075        4.3432765220        6.9483279744
  O         6.1364535582       10.7419476041        8.5975140536
  N         6.2205035810       10.7441655226        7.2765480212
  N         7.2016756279       10.0946868312        6.6234278182
  N         6.9992696801       10.3015961690        5.3491921615
  N         5.9048793927       11.0790265433        5.1463972697
  C         5.4350269125       11.3438403692        6.3669263881
  O         9.4786945023        9.2718966199        9.1044193214
  N         8.5643639440       10.0133601198        9.8791212801
  H         8.9270289099       10.8054876621       10.1755418919
  H        -0.7169309849        9.8494490326        9.0111761066
  H         8.2863465619        9.5060588731       10.5302179479
  H         7.8226403224       10.2278794253        9.4010179420
  O         5.8406580144        6.8904349534       11.8634258144
  N         5.9313850397        6.8836032582       10.5442746798
  N         6.9145415900        7.5357391946        9.8908935380
  N         6.7093280161        7.3240378093        8.6157157756
  N         5.6221143773        6.5482894029        8.4195974337
  C         5.1481884462        6.2830823954        9.6384552917
  O         9.1847821048        8.3563289726       12.3702931576
  N         9.4332657688        7.6152071049        0.0759071675
  H         9.7953303584        6.8289133837        0.3761863400
  H        -0.9884801773        7.7719995846       12.2767234816
  H         9.1558759510        8.1179075497        0.7331185119
  H         7.5314300489        7.3934587309       12.6556377167
  O         3.5899844296        1.0101070179        4.4736733461
  N         3.4970222524        1.0114517298        5.7971015187
  N         2.5274951263        1.6559287048        6.4448398325
  N         2.7222230105        1.4500388962        7.7252622511
  N         3.8156232863        0.6729835912        7.9224858086
  C         4.2823027528        0.4053229895        6.7027848325
  O         5.1076820873        2.4815187174       10.4989514488
  N         6.0166049690        1.7394300275        9.7272973431
  H         5.6423751245        0.9483988080        9.4257352625
  H         4.4100788219        1.9024004479       10.5762972329
  H         6.2806981668        2.2429923229        9.0804264532
  H         6.7440543650        1.5239090298       10.2046210335
     192
 i =        2, time =        1.000, E =     -1435.5650671631
  O         9.3269774067        4.8631542810        1.2072543073
  N         9.2319565134        4.8631783915        2.5333573798
  N         8.2494390265        4.2139362537        3.1804834256
  N         8.4431117891        4.4183349066        4.4509567998
  N         9.5383223559        5.2071512347        4.6493024775
  C        10.0125718750        5.4798429059        3.4286635430
  O         0.5335288167        3.4024323272        0.6951704617
  N         0.2875885358        4.1356967202       13.0021107180
  H        -0.0900063776        4.9527371378       12.6625310101
  H        10.6920237827        3.9864635434        0.8092295551
  H         0.5771125233        3.6393383196       12.3049389122
  H         2.2303654503        4.3683009076        0.4333117806
  O         1.2704566387       10.7366681392        2.0643515276
  N         1.3596582426       10.7447757748        0.7401503044
  N         2.3434084887       10.0938653003        0.0884250597
  N         0.9773237346       10.3031773284       11.8855602746
  N        -0.1110705613       11.0787024039       11.6931047342
  C        -0.5891253369       11.3464924630       12.9038768029
  O         4.6205629010        9.2720658708        2.5664053437
  N         3.6928592288       10.0128590416        3.3422596509
  H         4.0630214694       10.8372423636        3.6475367600
  H         5.3508459106        9.8817062676        2.4935684345
  H         3.4200627998        9.4651450621        4.0400264494
  H         2.9536573619       10.2363620480        2.8373973778
  O         0.9740463851        6.8842518839        5.3305203264
  N         1.0655540206        6.8853142411        4.0051016877
  N         2.0504788197        7.5399411806        3.3613994362
  N         1.8477895341        7.3306379335        2.0843949137
  N         0.7658468520        6.5531807928        1.8860859223
  C         0.2883775439        6.2765495571        3.0991971752
  O         4.3319231731        8.3587075762        5.8339434439
  N         3.4092231121        7.6089416683        6.6100831564
  H         3.7637206408        6.8143997735        6.9193557008
  H         5.0325273628        7.7886717367        5.7487153390
  H         3.1212751180        8.1348455695        7.3008602082
  H         2.6361907331        7.3926348987        6.1085360885
  O         8.4499052622        1.0087124843       11.0036448710
  N         8.3567034692        1.0031408604       12.3290296540
  N         7.3766443409        1.6549668516       12.9789074939
  N         8.7409503251        1.4487135766        1.1860913147
  N         9.8264432427        0.6644009945        1.3853995126
  C        10.3025860900        0.4019351180        0.1596144323
  O         0.2475406522        2.4806970266        3.9574738109
  N         1.1570618348        1.7436798774        3.1930737450
  H         0.7557525681        0.9247676838        2.8720078555
  H        10.4234128174        1.8771691432        4.0676836368
  H         1.4584366932        2.2625606623        2.5010318435
  H         1.9269000346        1.5009992527        3.7145603810
  O         3.8810101446        4.8747974494        1.2104240969
  N         3.7889044729        4.8668694222        2.5286760792
  N         2.8020886777        4.2158696860        3.1697241158
  N         3.0053516425        4.4193914321        4.4534818921
  N         4.1079544605        5.2022734429        4.6511951008
  C         4.5812319801        5.4684140657        3.4380879696
  O         5.9767716398        3.3949420038        0.7030612338
  N         5.7263730398        4.1347208650       12.9946101529
  H         5.3421252230        4.9579228459       12.6982769825
  H         5.2692925133        3.9734725078        0.7967820048
  H         6.0160113694        3.6140821308       12.2988192908
  H         7.6563326832        4.3452173338        0.4408630746
  O         6.7075717901       10.7459877111        2.0539293441
  N         6.8020754304       10.7390883687        0.7437621855
  N         7.7783177491       10.0967238896        0.0943016925
  N         6.4260664836       10.3021175969       11.8899601320
  N         5.3291893054       11.0799216108       11.6845420466
  C         4.8613041036       11.3475074578       12.8945679012
  O        10.0581001749        9.2753888752        2.5773248952
  N         9.1448789596       10.0096392374        3.3387662729
  H         9.5309869407       10.7969256981        3.6681365642
  H        -0.1232730510        9.8892000399        2.4592614568
  H         8.8378118807        9.4785629049        4.0248605938
  H         8.3775073847       10.2051788461        2.8313324334
  O         6.4174166069        6.8789048484        5.3350500457
  N         6.5090020152        6.8851984804        4.0000733110