 DBCSR| CPU Multiplication driver                                           XSMM
 DBCSR| Multrec recursion limit                                              512
 DBCSR| Multiplication stack size                                           1000
 DBCSR| Maximum elements for images                                    UNLIMITED
 DBCSR| Multiplicative factor virtual images                                   1
 DBCSR| Use multiplication densification                                       T
 DBCSR| Multiplication size stacks                                             3
 DBCSR| Number of 3D layers                                               SINGLE
 DBCSR| Use MPI memory allocation                                              T
 DBCSR| Use RMA algorithm                                                      F
 DBCSR| Use Communication thread                                               T
 DBCSR| Communication thread load                                             87


  **** **** ******  **  PROGRAM STARTED AT               2023-12-25 07:23:46.111
 ***** ** ***  *** **   PROGRAM STARTED ON                              stonehpc
 **    ****   ******    PROGRAM STARTED BY                              stonehpc
 ***** **    ** ** **   PROGRAM PROCESS ID                                 16462
  **** **  *******  **  PROGRAM STARTED IN            /home/stonehpc/TKX-50-AIMD

 CP2K| version string:                                          CP2K version 7.1
 CP2K| source code revision number:                                  git:e635599
 CP2K| cp2kflags: libint fftw3 libxc pexsi elpa parallel mpi3 scalapack quip smm
 CP2K|            _dnn smm xsmm plumed2 spglib
 CP2K| is freely available from                            https://www.cp2k.org/
 CP2K| Program compiled at                          Fri Jun 16 08:15:57 UTC 2023
 CP2K| Program compiled on                                              stonehpc
 CP2K| Program compiled for                                                local
 CP2K| Data directory path                                    /opt/cp2k-7.1/data
 CP2K| Input file name                                                  cp2k.inp

 GLOBAL| Force Environment number                                              1
 GLOBAL| Basis set file name                                        BASIS_MOLOPT
 GLOBAL| Potential file name                                           POTENTIAL
 GLOBAL| MM Potential file name                                     MM_POTENTIAL
 GLOBAL| Coordinate file name                                      __STD_INPUT__
 GLOBAL| Method name                                                        CP2K
 GLOBAL| Project name                                                       cp2k
 GLOBAL| Preferred FFT library                                             FFTW3
 GLOBAL| Preferred diagonalization lib.                                     ELPA
 GLOBAL| Run type                                                             MD
 GLOBAL| All-to-all communication in single precision                          F
 GLOBAL| FFTs using library dependent lengths                                  F
 GLOBAL| Global print level                                               MEDIUM
 GLOBAL| MPI I/O enabled                                                       T
 GLOBAL| Total number of message passing processes                            36
 GLOBAL| Number of threads for this process                                    1
 GLOBAL| This output is from process                                           0
 GLOBAL| CPU model name                Intel(R) Xeon(R) Gold 6258R CPU @ 2.70GHz
 GLOBAL| CPUID                                                              1003

 MEMORY| system memory details [Kb]
 MEMORY|                        rank 0           min           max       average
 MEMORY| MemTotal            394679288     394679288     394679288     394679288
 MEMORY| MemFree             381601324     381601324     381601324     381601324
 MEMORY| Buffers                598996        598996        600764        599460
 MEMORY| Cached                4223552       4222536       4223552       4223337
 MEMORY| Slab                   574968        574968        574968        574968
 MEMORY| SReclaimable           351144        351144        351144        351144
 MEMORY| MemLikelyFree       386775016     386775016     386775768     386775266


 *** Fundamental physical constants (SI units) ***

 *** Literature: B. J. Mohr and B. N. Taylor,
 ***             CODATA recommended values of the fundamental physical
 ***             constants: 2006, Web Version 5.1
 ***             http://physics.nist.gov/constants

 Speed of light in vacuum [m/s]                             2.99792458000000E+08
 Magnetic constant or permeability of vacuum [N/A**2]       1.25663706143592E-06
 Electric constant or permittivity of vacuum [F/m]          8.85418781762039E-12
 Planck constant (h) [J*s]                                  6.62606896000000E-34
 Planck constant (h-bar) [J*s]                              1.05457162825177E-34
 Elementary charge [C]                                      1.60217648700000E-19
 Electron mass [kg]                                         9.10938215000000E-31
 Electron g factor [ ]                                     -2.00231930436220E+00
 Proton mass [kg]                                           1.67262163700000E-27
 Fine-structure constant                                    7.29735253760000E-03
 Rydberg constant [1/m]                                     1.09737315685270E+07
 Avogadro constant [1/mol]                                  6.02214179000000E+23
 Boltzmann constant [J/K]                                   1.38065040000000E-23
 Atomic mass unit [kg]                                      1.66053878200000E-27
 Bohr radius [m]                                            5.29177208590000E-11

 *** Conversion factors ***

 [u] -> [a.u.]                                              1.82288848426455E+03
 [Angstrom] -> [Bohr] = [a.u.]                              1.88972613288564E+00
 [a.u.] = [Bohr] -> [Angstrom]                              5.29177208590000E-01
 [a.u.] -> [s]                                              2.41888432650478E-17
 [a.u.] -> [fs]                                             2.41888432650478E-02
 [a.u.] -> [J]                                              4.35974393937059E-18
 [a.u.] -> [N]                                              8.23872205491840E-08
 [a.u.] -> [K]                                              3.15774647902944E+05
 [a.u.] -> [kJ/mol]                                         2.62549961709828E+03
 [a.u.] -> [kcal/mol]                                       6.27509468713739E+02
 [a.u.] -> [Pa]                                             2.94210107994716E+13
 [a.u.] -> [bar]                                            2.94210107994716E+08
 [a.u.] -> [atm]                                            2.90362800883016E+08
 [a.u.] -> [eV]                                             2.72113838565563E+01
 [a.u.] -> [Hz]                                             6.57968392072181E+15
 [a.u.] -> [1/cm] (wave numbers)                            2.19474631370540E+05
 [a.u./Bohr**2] -> [1/cm]                                   5.14048714338585E+03
 

 CELL_TOP| Volume [angstrom^3]:                                         1671.446
 CELL_TOP| Vector a [angstrom    10.882     0.000     0.000    |a| =      10.882
 CELL_TOP| Vector b [angstrom     0.000    11.751     0.000    |b| =      11.751
 CELL_TOP| Vector c [angstrom    -1.160     0.000    13.071    |c| =      13.122
 CELL_TOP| Angle (b,c), alpha [degree]:                                   90.000
 CELL_TOP| Angle (a,c), beta  [degree]:                                   95.071
 CELL_TOP| Angle (a,b), gamma [degree]:                                   90.000
 CELL_TOP| Numerically orthorhombic:                                          NO

 GENERATE|  Preliminary Number of Bonds generated:                             0
 GENERATE|  Achieved consistency in connectivity generation.

 CELL| Volume [angstrom^3]:                                             1671.446
 CELL| Vector a [angstrom]:      10.882     0.000     0.000    |a| =      10.882
 CELL| Vector b [angstrom]:       0.000    11.751     0.000    |b| =      11.751
 CELL| Vector c [angstrom]:      -1.160     0.000    13.071    |c| =      13.122
 CELL| Angle (b,c), alpha [degree]:                                       90.000
 CELL| Angle (a,c), beta  [degree]:                                       95.071
 CELL| Angle (a,b), gamma [degree]:                                       90.000
 CELL| Numerically orthorhombic:                                              NO

 CELL_REF| Volume [angstrom^3]:                                         1671.446
 CELL_REF| Vector a [angstrom    10.882     0.000     0.000    |a| =      10.882
 CELL_REF| Vector b [angstrom     0.000    11.751     0.000    |b| =      11.751
 CELL_REF| Vector c [angstrom    -1.160     0.000    13.071    |c| =      13.122
 CELL_REF| Angle (b,c), alpha [degree]:                                   90.000
 CELL_REF| Angle (a,c), beta  [degree]:                                   95.071
 CELL_REF| Angle (a,b), gamma [degree]:                                   90.000
 CELL_REF| Numerically orthorhombic:                                          NO

 *******************************************************************************
 *******************************************************************************
 **                                                                           **
 **     #####                         ##              ##                      **
 **    ##   ##            ##          ##              ##                      **
 **   ##     ##                       ##            ######                    **
 **   ##     ##  ##   ##  ##   #####  ##  ##   ####   ##    #####    #####    **
 **   ##     ##  ##   ##  ##  ##      ## ##   ##      ##   ##   ##  ##   ##   **
 **   ##  ## ##  ##   ##  ##  ##      ####     ###    ##   ######   ######    **
 **    ##  ###   ##   ##  ##  ##      ## ##      ##   ##   ##       ##        **
 **     #######   #####   ##   #####  ##  ##  ####    ##    #####   ##        **
 **           ##                                                    ##        **
 **                                                                           **
 **                                                ... make the atoms dance   **
 **                                                                           **
 **            Copyright (C) by CP2K developers group (2000 - 2019)           **
 **                                                                           **
 *******************************************************************************

 DFT| Spin restricted Kohn-Sham (RKS) calculation                            RKS
 DFT| Multiplicity                                                             1
 DFT| Number of spin states                                                    1
 DFT| Charge                                                                   0
 DFT| Self-interaction correction (SIC)                                       NO
 DFT| Cutoffs: density                                              1.000000E-10
 DFT|          gradient                                             1.000000E-10
 DFT|          tau                                                  1.000000E-10
 DFT|          cutoff_smoothing_range                               0.000000E+00
 DFT| XC density smoothing                                                  NONE
 DFT| XC derivatives                                                          PW
 FUNCTIONAL| ROUTINE=NEW
 FUNCTIONAL| PBE:
 FUNCTIONAL| J.P.Perdew, K.Burke, M.Ernzerhof, Phys. Rev. Letter, vol. 77, n 18,
 FUNCTIONAL|  pp. 3865-3868, (1996){spin unpolarized}                           
 vdW POTENTIAL|                                                   Pair Potential
 vdW POTENTIAL|          DFT-D3 (Version 3.1)
 vdW POTENTIAL|          Potential Form: S. Grimme et al, JCP 132: 154104 (2010)
 vdW POTENTIAL|          BJ Damping: S. Grimme et al, JCC 32: 1456 (2011)
 vdW POTENTIAL|          Cutoff Radius [Bohr]:                             20.00
 vdW POTENTIAL|          s6 Scaling Factor:                               1.0000
 vdW POTENTIAL|          a1 Damping Factor:                               0.4289
 vdW POTENTIAL|          s8 Scaling Factor:                               0.7875
 vdW POTENTIAL|          a2 Damping Factor:                               4.4407
 vdW POTENTIAL|          Cutoff for CN calculation:                   0.1000E-05

 QS| Method:                                                                 GPW
 QS| Density plane wave grid type                        NON-SPHERICAL FULLSPACE
 QS| Number of grid levels:                                                    4
 QS| Density cutoff [a.u.]:                                                150.0
 QS| Multi grid cutoff [a.u.]: 1) grid level                               150.0
 QS|                           2) grid level                                50.0
 QS|                           3) grid level                                16.7
 QS|                           4) grid level                                 5.6
 QS| Grid level progression factor:                                          3.0
 QS| Relative density cutoff [a.u.]:                                        20.0
 QS| Consistent realspace mapping and integration 
 QS| Interaction thresholds: eps_pgf_orb:                                1.0E-05
 QS|                         eps_filter_matrix:                          0.0E+00
 QS|                         eps_core_charge:                            1.0E-12
 QS|                         eps_rho_gspace:                             1.0E-10
 QS|                         eps_rho_rspace:                             1.0E-10
 QS|                         eps_gvg_rspace:                             1.0E-05
 QS|                         eps_ppl:                                    1.0E-02
 QS|                         eps_ppnl:                                   1.0E-07


 ATOMIC KIND INFORMATION

  1. Atomic kind: O                                     Number of atoms:      32

     Orbital Basis Set                                     DZVP-MOLOPT-SR-GTH-q6

       Number of orbital shell sets:                                           1
       Number of orbital shells:                                               5
       Number of primitive Cartesian functions:                                5
       Number of Cartesian basis functions:                                   14
       Number of spherical basis functions:                                   13
       Norm type:                                                              2

       Normalised Cartesian orbitals:

                        Set   Shell   Orbital            Exponent    Coefficient

                          1       1    2s               10.389228       0.396646
                                                         3.849621       0.208811
                                                         1.388401      -0.301641
                                                         0.496955      -0.274061
                                                         0.162492      -0.033677

                          1       2    3s               10.389228       0.303673
                                                         3.849621       0.240943
                                                         1.388401      -0.313066
                                                         0.496955      -0.043055
                                                         0.162492       0.213991

                          1       3    3px              10.389228      -1.530415
                                                         3.849621      -1.371928
                                                         1.388401      -0.761951
                                                         0.496955      -0.253695
                                                         0.162492      -0.035541
                          1       3    3py              10.389228      -1.530415
                                                         3.849621      -1.371928
                                                         1.388401      -0.761951
                                                         0.496955      -0.253695
                                                         0.162492      -0.035541
                          1       3    3pz              10.389228      -1.530415
                                                         3.849621      -1.371928
                                                         1.388401      -0.761951
                                                         0.496955      -0.253695
                                                         0.162492      -0.035541

                          1       4    4px              10.389228      -0.565392
                                                         3.849621      -0.038231
                                                         1.388401      -0.382373
                                                         0.496955       0.179070
                                                         0.162492       0.122714
                          1       4    4py              10.389228      -0.565392
                                                         3.849621      -0.038231
                                                         1.388401      -0.382373
                                                         0.496955       0.179070
                                                         0.162492       0.122714
                          1       4    4pz              10.389228      -0.565392
                                                         3.849621      -0.038231
                                                         1.388401      -0.382373
                                                         0.496955       0.179070
                                                         0.162492       0.122714

                          1       5    4dx2             10.389228       1.867377
                                                         3.849621       0.670994
                                                         1.388401       1.353441
                                                         0.496955       0.273538
                                                         0.162492       0.006620
                          1       5    4dxy             10.389228       3.234392
                                                         3.849621       1.162195
                                                         1.388401       2.344229
                                                         0.496955       0.473781
                                                         0.162492       0.011466
                          1       5    4dxz             10.389228       3.234392
                                                         3.849621       1.162195
                                                         1.388401       2.344229
                                                         0.496955       0.473781
                                                         0.162492       0.011466
                          1       5    4dy2             10.389228       1.867377
                                                         3.849621       0.670994
                                                         1.388401       1.353441
                                                         0.496955       0.273538
                                                         0.162492       0.006620
                          1       5    4dyz             10.389228       3.234392
                                                         3.849621       1.162195
                                                         1.388401       2.344229
                                                         0.496955       0.473781
                                                         0.162492       0.011466
                          1       5    4dz2             10.389228       1.867377
                                                         3.849621       0.670994
                                                         1.388401       1.353441
                                                         0.496955       0.273538
                                                         0.162492       0.006620

     GTH Potential information for                                       GTH-PBE

       Description:                       Goedecker-Teter-Hutter pseudopotential
                                           Goedecker et al., PRB 54, 1703 (1996)
                                          Hartwigsen et al., PRB 58, 3641 (1998)
                                                      Krack, TCA 114, 145 (2005)

       Gaussian exponent of the core charge distribution:               8.360253
       Electronic configuration (s p d ...):                               2   4

       Parameters of the local part of the GTH pseudopotential:

                          rloc        C1          C2          C3          C4
                        0.244554  -16.667215    2.487311

       Parameters of the non-local part of the GTH pseudopotential:

                   l      r(l)      h(i,j,l)

                   0    0.220956   18.337458
                   1    0.211332

  2. Atomic kind: N                                     Number of atoms:      80

     Orbital Basis Set                                     DZVP-MOLOPT-SR-GTH-q5

       Number of orbital shell sets:                                           1
       Number of orbital shells:                                               5
       Number of primitive Cartesian functions:                                5
       Number of Cartesian basis functions:                                   14
       Number of spherical basis functions:                                   13
       Norm type:                                                              2

       Normalised Cartesian orbitals:

                        Set   Shell   Orbital            Exponent    Coefficient

                          1       1    2s                7.341988       0.360561
                                                         2.542637       0.139177
                                                         0.888575      -0.289383
                                                         0.333802      -0.182244
                                                         0.112012      -0.019197

                          1       2    3s                7.341988       0.282000
                                                         2.542637       0.177875
                                                         0.888575      -0.278381
                                                         0.333802       0.008577
                                                         0.112012       0.154176

                          1       3    3px               7.341988      -1.188719
                                                         2.542637      -0.973969
                                                         0.888575      -0.501079
                                                         0.333802      -0.144894
                                                         0.112012      -0.013986
                          1       3    3py               7.341988      -1.188719
                                                         2.542637      -0.973969
                                                         0.888575      -0.501079
                                                         0.333802      -0.144894
                                                         0.112012      -0.013986
                          1       3    3pz               7.341988      -1.188719
                                                         2.542637      -0.973969
                                                         0.888575      -0.501079
                                                         0.333802      -0.144894
                                                         0.112012      -0.013986

                          1       4    4px               7.341988      -0.094798
                                                         2.542637       0.050069
                                                         0.888575      -0.114797
                                                         0.333802       0.144793
                                                         0.112012       0.066710
                          1       4    4py               7.341988      -0.094798
                                                         2.542637       0.050069
                                                         0.888575      -0.114797
                                                         0.333802       0.144793
                                                         0.112012       0.066710
                          1       4    4pz               7.341988      -0.094798
                                                         2.542637       0.050069
                                                         0.888575      -0.114797
                                                         0.333802       0.144793
                                                         0.112012       0.066710

                          1       5    4dx2              7.341988       1.354688
                                                         2.542637       0.690378
                                                         0.888575       0.855359
                                                         0.333802       0.091746
                                                         0.112012       0.001253
                          1       5    4dxy              7.341988       2.346389
                                                         2.542637       1.195770
                                                         0.888575       1.481524
                                                         0.333802       0.158910
                                                         0.112012       0.002169
                          1       5    4dxz              7.341988       2.346389
                                                         2.542637       1.195770
                                                         0.888575       1.481524
                                                         0.333802       0.158910
                                                         0.112012       0.002169
                          1       5    4dy2              7.341988       1.354688
                                                         2.542637       0.690378
                                                         0.888575       0.855359
                                                         0.333802       0.091746
                                                         0.112012       0.001253
                          1       5    4dyz              7.341988       2.346389
                                                         2.542637       1.195770
                                                         0.888575       1.481524
                                                         0.333802       0.158910
                                                         0.112012       0.002169
                          1       5    4dz2              7.341988       1.354688
                                                         2.542637       0.690378
                                                         0.888575       0.855359
                                                         0.333802       0.091746
                                                         0.112012       0.001253

     GTH Potential information for                                       GTH-PBE

       Description:                       Goedecker-Teter-Hutter pseudopotential
                                           Goedecker et al., PRB 54, 1703 (1996)
                                          Hartwigsen et al., PRB 58, 3641 (1998)
                                                      Krack, TCA 114, 145 (2005)

       Gaussian exponent of the core charge distribution:               6.208322
       Electronic configuration (s p d ...):                               2   3

       Parameters of the local part of the GTH pseudopotential:

                          rloc        C1          C2          C3          C4
                        0.283791  -12.415226    1.868096

       Parameters of the non-local part of the GTH pseudopotential:

                   l      r(l)      h(i,j,l)

                   0    0.255405   13.630263
                   1    0.245495

  3. Atomic kind: C                                     Number of atoms:      16

     Orbital Basis Set                                     DZVP-MOLOPT-SR-GTH-q4

       Number of orbital shell sets:                                           1
       Number of orbital shells:                                               5
       Number of primitive Cartesian functions:                                5
       Number of Cartesian basis functions:                                   14
       Number of spherical basis functions:                                   13
       Norm type:                                                              2

       Normalised Cartesian orbitals:

                        Set   Shell   Orbital            Exponent    Coefficient

                          1       1    2s                5.605331       0.322515
                                                         2.113016       0.213043
                                                         0.769911      -0.209686
                                                         0.348157      -0.219794
                                                         0.128212      -0.022789

                          1       2    3s                5.605331       0.552234
                                                         2.113016       0.082072
                                                         0.769911       0.007843
                                                         0.348157       0.136893
                                                         0.128212       0.074283

                          1       3    3px               5.605331      -0.703879
                                                         2.113016      -0.642521
                                                         0.769911      -0.374851
                                                         0.348157      -0.139743
                                                         0.128212      -0.027849
                          1       3    3py               5.605331      -0.703879
                                                         2.113016      -0.642521
                                                         0.769911      -0.374851
                                                         0.348157      -0.139743
                                                         0.128212      -0.027849
                          1       3    3pz               5.605331      -0.703879
                                                         2.113016      -0.642521
                                                         0.769911      -0.374851
                                                         0.348157      -0.139743
                                                         0.128212      -0.027849

                          1       4    4px               5.605331      -0.480376
                                                         2.113016      -0.552894
                                                         0.769911      -0.316145
                                                         0.348157       0.210505
                                                         0.128212       0.076095
                          1       4    4py               5.605331      -0.480376
                                                         2.113016      -0.552894
                                                         0.769911      -0.316145
                                                         0.348157       0.210505
                                                         0.128212       0.076095
                          1       4    4pz               5.605331      -0.480376
                                                         2.113016      -0.552894
                                                         0.769911      -0.316145
                                                         0.348157       0.210505
                                                         0.128212       0.076095

                          1       5    4dx2              5.605331       0.640026
                                                         2.113016       0.274300
                                                         0.769911       0.446711
                                                         0.348157       0.028674
                                                         0.128212       0.029790
                          1       5    4dxy              5.605331       1.108557
                                                         2.113016       0.475102
                                                         0.769911       0.773726
                                                         0.348157       0.049666
                                                         0.128212       0.051599
                          1       5    4dxz              5.605331       1.108557
                                                         2.113016       0.475102
                                                         0.769911       0.773726
                                                         0.348157       0.049666
                                                         0.128212       0.051599
                          1       5    4dy2              5.605331       0.640026
                                                         2.113016       0.274300
                                                         0.769911       0.446711
                                                         0.348157       0.028674
                                                         0.128212       0.029790
                          1       5    4dyz              5.605331       1.108557
                                                         2.113016       0.475102
                                                         0.769911       0.773726
                                                         0.348157       0.049666
                                                         0.128212       0.051599
                          1       5    4dz2              5.605331       0.640026
                                                         2.113016       0.274300
                                                         0.769911       0.446711
                                                         0.348157       0.028674
                                                         0.128212       0.029790

     GTH Potential information for                                       GTH-PBE

       Description:                       Goedecker-Teter-Hutter pseudopotential
                                           Goedecker et al., PRB 54, 1703 (1996)
                                          Hartwigsen et al., PRB 58, 3641 (1998)
                                                      Krack, TCA 114, 145 (2005)

       Gaussian exponent of the core charge distribution:               4.364419
       Electronic configuration (s p d ...):                               2   2

       Parameters of the local part of the GTH pseudopotential:

                          rloc        C1          C2          C3          C4
                        0.338471   -8.803674    1.339211

       Parameters of the non-local part of the GTH pseudopotential:

                   l      r(l)      h(i,j,l)

                   0    0.302576    9.622487
                   1    0.291507

  4. Atomic kind: H                                     Number of atoms:      64

     Orbital Basis Set                                     DZVP-MOLOPT-SR-GTH-q1

       Number of orbital shell sets:                                           1
       Number of orbital shells:                                               3
       Number of primitive Cartesian functions:                                5
       Number of Cartesian basis functions:                                    5
       Number of spherical basis functions:                                    5
       Norm type:                                                              2

       Normalised Cartesian orbitals:

                        Set   Shell   Orbital            Exponent    Coefficient

                          1       1    2s               10.068468      -0.133023
                                                         2.680223      -0.177618
                                                         0.791502      -0.258419
                                                         0.239116      -0.107525
                                                         0.082193      -0.014019

                          1       2    3s               10.068468       0.344673
                                                         2.680223       1.819821
                                                         0.791502      -0.999069
                                                         0.239116       0.017430
                                                         0.082193       0.082660

                          1       3    3px              10.068468       0.155326
                                                         2.680223       0.367157
                                                         0.791502       0.311480
                                                         0.239116       0.080105
                                                         0.082193       0.033440
                          1       3    3py              10.068468       0.155326
                                                         2.680223       0.367157
                                                         0.791502       0.311480
                                                         0.239116       0.080105
                                                         0.082193       0.033440
                          1       3    3pz              10.068468       0.155326
                                                         2.680223       0.367157
                                                         0.791502       0.311480
                                                         0.239116       0.080105
                                                         0.082193       0.033440

     GTH Potential information for                                       GTH-PBE

       Description:                       Goedecker-Teter-Hutter pseudopotential
                                           Goedecker et al., PRB 54, 1703 (1996)
                                          Hartwigsen et al., PRB 58, 3641 (1998)
                                                      Krack, TCA 114, 145 (2005)

       Gaussian exponent of the core charge distribution:              12.500000
       Electronic configuration (s p d ...):                                   1

       Parameters of the local part of the GTH pseudopotential:

                          rloc        C1          C2          C3          C4
                        0.200000   -4.178900    0.724463


 MOLECULE KIND INFORMATION


 All atoms are their own molecule, skipping detailed information


 TOTAL NUMBERS AND MAXIMUM NUMBERS

  Total number of            - Atomic kinds:                                   4
                             - Atoms:                                        192
                             - Shell sets:                                   192
                             - Shells:                                       832
                             - Primitive Cartesian functions:                960
                             - Cartesian basis functions:                   2112
                             - Spherical basis functions:                   1984

  Maximum angular momentum of- Orbital basis functions:                        2
                             - Local part of the GTH pseudopotential:          2
                             - Non-local part of the GTH pseudopotential:      0


 MODULE QUICKSTEP:  ATOMIC COORDINATES IN angstrom

  Atom  Kind  Element       X           Y           Z          Z(eff)       Mass

       1     1 O    8    9.320170    4.866137    1.206980      6.00      15.9994
       2     2 N    7    9.230086    4.866490    2.528723      5.00      14.0067
       3     2 N    7    8.250293    4.217342    3.177569      5.00      14.0067
       4     2 N    7    8.450362    4.423697    4.454610      5.00      14.0067
       5     2 N    7    9.544229    5.203520    4.653943      5.00      14.0067
       6     3 C    6   10.013890    5.470394    3.432455      4.00      12.0107
       7     1 O    8    0.534350    3.396625    0.698255      6.00      15.9994
       8     2 N    7    0.287618    4.138138   12.994572      5.00      14.0067
       9     4 H    1   -0.076180    4.921486   12.691978      1.00       1.0079
      10     4 H    1   10.724374    3.975499    0.790798      1.00       1.0079
      11     4 H    1    0.563927    3.642934   12.345595      1.00       1.0079
      12     4 H    1    2.167567    4.349193    0.405202      1.00       1.0079
      13     1 O    8    1.271457   10.741837    2.060780      6.00      15.9994
      14     2 N    7    1.361542   10.742190    0.739036      5.00      14.0067
      15     2 N    7    2.341334   10.093042    0.090190      5.00      14.0067
      16     2 N    7    0.981375   10.299397   11.884188      5.00      14.0067
      17     2 N    7   -0.112492   11.079220   11.684854      5.00      14.0067
      18     3 C    6   -0.582153   11.346094   12.906343      4.00      12.0107
      19     1 O    8    4.616477    9.272325    2.569505      6.00      15.9994
      20     2 N    7    3.703318   10.013838    3.344225      5.00      14.0067
      21     4 H    1    4.067116   10.797186    3.646820      1.00       1.0079
      22     4 H    1    5.308053    9.851199    2.476962      1.00       1.0079
      23     4 H    1    3.427009    9.518634    3.993202      1.00       1.0079
      24     4 H    1    2.983260   10.224893    2.862557      1.00       1.0079
      25     1 O    8    0.981485    6.885263    5.328539      6.00      15.9994
      26     2 N    7    1.071569    6.884910    4.006796      5.00      14.0067
      27     2 N    7    2.051361    7.534058    3.357950      5.00      14.0067
      28     2 N    7    1.851293    7.327703    2.080909      5.00      14.0067
      29     2 N    7    0.757426    6.547880    1.881576      5.00      14.0067
      30     3 C    6    0.287765    6.281006    3.103064      4.00      12.0107
      31     1 O    8    4.326504    8.354775    5.837264      6.00      15.9994
      32     2 N    7    3.413345    7.613262    6.611985      5.00      14.0067
      33     4 H    1    3.777143    6.829914    6.914579      1.00       1.0079
      34     4 H    1    5.018081    7.775901    5.744721      1.00       1.0079
      35     4 H    1    3.137037    8.108466    7.260962      1.00       1.0079
      36     4 H    1    2.693287    7.402207    6.130317      1.00       1.0079
      37     1 O    8    8.450252    1.009563   11.010258      6.00      15.9994
      38     2 N    7    8.360168    1.009210   12.332002      5.00      14.0067
      39     2 N    7    7.380375    1.658358   12.980848      5.00      14.0067
      40     2 N    7    8.740335    1.452003    1.186850      5.00      14.0067
      41     2 N    7    9.834202    0.672180    1.386184      5.00      14.0067
      42     3 C    6   10.303863    0.405306    0.164695      4.00      12.0107
      43     1 O    8    0.244378    2.479075    3.966014      6.00      15.9994
      44     2 N    7    1.157536    1.737562    3.191294      5.00      14.0067
      45     4 H    1    0.793739    0.954214    2.888699      1.00       1.0079
      46     4 H    1   10.434401    1.900201    4.058557      1.00       1.0079
      47     4 H    1    1.433845    2.232766    2.542317      1.00       1.0079
      48     4 H    1    1.877595    1.526507    3.672962      1.00       1.0079
      49     1 O    8    3.879370    4.866137    1.206980      6.00      15.9994
      50     2 N    7    3.789286    4.866490    2.528723      5.00      14.0067
      51     2 N    7    2.809493    4.217342    3.177569      5.00      14.0067
      52     2 N    7    3.009562    4.423697    4.454610      5.00      14.0067
      53     2 N    7    4.103429    5.203520    4.653943      5.00      14.0067
      54     3 C    6    4.573090    5.470394    3.432455      4.00      12.0107
      55     1 O    8    5.975150    3.396625    0.698255      6.00      15.9994
      56     2 N    7    5.728418    4.138138   12.994572      5.00      14.0067
      57     4 H    1    5.364620    4.921486   12.691978      1.00       1.0079
      58     4 H    1    5.283574    3.975499    0.790798      1.00       1.0079
      59     4 H    1    6.004727    3.642934   12.345595      1.00       1.0079
      60     4 H    1    7.608367    4.349193    0.405202      1.00       1.0079
      61     1 O    8    6.712257   10.741837    2.060780      6.00      15.9994
      62     2 N    7    6.802342   10.742190    0.739036      5.00      14.0067
      63     2 N    7    7.782134   10.093042    0.090190      5.00      14.0067
      64     2 N    7    6.422175   10.299397   11.884188      5.00      14.0067
      65     2 N    7    5.328308   11.079220   11.684854      5.00      14.0067
      66     3 C    6    4.858647   11.346094   12.906343      4.00      12.0107
      67     1 O    8   10.057277    9.272325    2.569505      6.00      15.9994
      68     2 N    7    9.144118   10.013838    3.344225      5.00      14.0067
      69     4 H    1    9.507916   10.797186    3.646820      1.00       1.0079
      70     4 H    1   -0.132747    9.851199    2.476962      1.00       1.0079
      71     4 H    1    8.867809    9.518634    3.993202      1.00       1.0079
      72     4 H    1    8.424060   10.224893    2.862557      1.00       1.0079
      73     1 O    8    6.422285    6.885263    5.328539      6.00      15.9994
      74     2 N    7    6.512369    6.884910    4.006796      5.00      14.0067
      75     2 N    7    7.492161    7.534058    3.357950      5.00      14.0067
      76     2 N    7    7.292093    7.327703    2.080909      5.00      14.0067
      77     2 N    7    6.198226    6.547880    1.881576      5.00      14.0067
      78     3 C    6    5.728565    6.281006    3.103064      4.00      12.0107
      79     1 O    8    9.767304    8.354775    5.837264      6.00      15.9994
      80     2 N    7    8.854145    7.613262    6.611985      5.00      14.0067
      81     4 H    1    9.217943    6.829914    6.914579      1.00       1.0079
      82     4 H    1   -0.422719    7.775901    5.744721      1.00       1.0079
      83     4 H    1    8.577837    8.108466    7.260962      1.00       1.0079
      84     4 H    1    8.134087    7.402207    6.130317      1.00       1.0079
      85     1 O    8    3.009452    1.009563   11.010258      6.00      15.9994
      86     2 N    7    2.919368    1.009210   12.332002      5.00      14.0067
      87     2 N    7    1.939575    1.658358   12.980848      5.00      14.0067
      88     2 N    7    3.299535    1.452003    1.186850      5.00      14.0067
      89     2 N    7    4.393402    0.672180    1.386184      5.00      14.0067
      90     3 C    6    4.863063    0.405306    0.164695      4.00      12.0107
      91     1 O    8    5.685178    2.479075    3.966014      6.00      15.9994
      92     2 N    7    6.598337    1.737562    3.191294      5.00      14.0067
      93     4 H    1    6.234539    0.954214    2.888699      1.00       1.0079
      94     4 H    1    4.993601    1.900201    4.058557      1.00       1.0079
      95     4 H    1    6.874645    2.232766    2.542317      1.00       1.0079
      96     4 H    1    7.318395    1.526507    3.672962      1.00       1.0079
      97     1 O    8    8.740224    4.866137    7.742499      6.00      15.9994
      98     2 N    7    8.650140    4.866490    9.064242      5.00      14.0067
      99     2 N    7    7.670348    4.217342    9.713088      5.00      14.0067
     100     2 N    7    7.870416    4.423697   10.990129      5.00      14.0067
     101     2 N    7    8.964284    5.203520   11.189462      5.00      14.0067
     102     3 C    6    9.433944    5.470394    9.967974      4.00      12.0107
     103     1 O    8   -0.045595    3.396625    7.233774      6.00      15.9994
     104     2 N    7    0.867564    4.138138    6.459053      5.00      14.0067
     105     4 H    1    0.503766    4.921486    6.156459      1.00       1.0079
     106     4 H    1   10.144428    3.975499    7.326317      1.00       1.0079
     107     4 H    1    1.143873    3.642934    5.810076      1.00       1.0079
     108     4 H    1    1.587622    4.349193    6.940721      1.00       1.0079
     109     1 O    8    0.691512   10.741837    8.596299      6.00      15.9994
     110     2 N    7    0.781596   10.742190    7.274555      5.00      14.0067
     111     2 N    7    1.761389   10.093042    6.625709      5.00      14.0067
     112     2 N    7    1.561320   10.299397    5.348669      5.00      14.0067
     113     2 N    7    0.467453   11.079220    5.149335      5.00      14.0067
     114     3 C    6   -0.002208   11.346094    6.370824      4.00      12.0107
     115     1 O    8    4.036532    9.272325    9.105024      6.00      15.9994
     116     2 N    7    3.123373   10.013838    9.879744      5.00      14.0067
     117     4 H    1    3.487171   10.797186   10.182339      1.00       1.0079
     118     4 H    1    4.728108    9.851199    9.012481      1.00       1.0079
     119     4 H    1    2.847064    9.518634   10.528721      1.00       1.0079
     120     4 H    1    2.403315   10.224893    9.398076      1.00       1.0079
     121     1 O    8    0.401551    6.885263   11.863928      6.00      15.9994
     122     2 N    7    0.491623    6.884910   10.542315      5.00      14.0067
     123     2 N    7    1.471416    7.534058    9.893469      5.00      14.0067
     124     2 N    7    1.271347    7.327703    8.616428      5.00      14.0067
     125     2 N    7    0.177480    6.547880    8.417095      5.00      14.0067
     126     3 C    6   -0.292181    6.281006    9.638583      4.00      12.0107
     127     1 O    8    3.746559    8.354775   12.372783      6.00      15.9994
     128     2 N    7    3.993291    7.613262    0.076466      5.00      14.0067
     129     4 H    1    4.357089    6.829914    0.379060      1.00       1.0079
     130     4 H    1    4.438135    7.775901   12.280240      1.00       1.0079
     131     4 H    1    3.716982    8.108466    0.725443      1.00       1.0079
     132     4 H    1    2.113342    7.402207   12.665836      1.00       1.0079
     133     1 O    8    9.030197    1.009563    4.474739      6.00      15.9994
     134     2 N    7    8.940113    1.009210    5.796483      5.00      14.0067
     135     2 N    7    7.960320    1.658358    6.445329      5.00      14.0067
     136     2 N    7    8.160389    1.452003    7.722369      5.00      14.0067
     137     2 N    7    9.254256    0.672180    7.921703      5.00      14.0067
     138     3 C    6    9.723917    0.405306    6.700214      4.00      12.0107
     139     1 O    8   -0.335568    2.479075   10.501533      6.00      15.9994
     140     2 N    7    0.577591    1.737562    9.726813      5.00      14.0067
     141     4 H    1    0.213793    0.954214    9.424218      1.00       1.0079
     142     4 H    1    9.854456    1.900201   10.594076      1.00       1.0079
     143     4 H    1    0.853900    2.232766    9.077836      1.00       1.0079
     144     4 H    1    1.297649    1.526507   10.208481      1.00       1.0079
     145     1 O    8    3.299424    4.866137    7.742499      6.00      15.9994
     146     2 N    7    3.209340    4.866490    9.064242      5.00      14.0067
     147     2 N    7    2.229548    4.217342    9.713088      5.00      14.0067
     148     2 N    7    2.429616    4.423697   10.990129      5.00      14.0067
     149     2 N    7    3.523484    5.203520   11.189462      5.00      14.0067
     150     3 C    6    3.993144    5.470394    9.967974      4.00      12.0107
     151     1 O    8    5.395205    3.396625    7.233774      6.00      15.9994
     152     2 N    7    6.308364    4.138138    6.459053      5.00      14.0067
     153     4 H    1    5.944566    4.921486    6.156459      1.00       1.0079
     154     4 H    1    4.703628    3.975499    7.326317      1.00       1.0079
     155     4 H    1    6.584673    3.642934    5.810076      1.00       1.0079
     156     4 H    1    7.028422    4.349193    6.940721      1.00       1.0079
     157     1 O    8    6.132312   10.741837    8.596299      6.00      15.9994
     158     2 N    7    6.222396   10.742190    7.274555      5.00      14.0067
     159     2 N    7    7.202189   10.093042    6.625709      5.00      14.0067
     160     2 N    7    7.002120   10.299397    5.348669      5.00      14.0067
     161     2 N    7    5.908253   11.079220    5.149335      5.00      14.0067
     162     3 C    6    5.438592   11.346094    6.370824      4.00      12.0107
     163     1 O    8    9.477332    9.272325    9.105024      6.00      15.9994
     164     2 N    7    8.564173   10.013838    9.879744      5.00      14.0067
     165     4 H    1    8.927971   10.797186   10.182339      1.00       1.0079
     166     4 H    1   -0.712692    9.851199    9.012481      1.00       1.0079
     167     4 H    1    8.287864    9.518634   10.528721      1.00       1.0079
     168     4 H    1    7.844114   10.224893    9.398076      1.00       1.0079
     169     1 O    8    5.842351    6.885263   11.863928      6.00      15.9994
     170     2 N    7    5.932424    6.884910   10.542315      5.00      14.0067
     171     2 N    7    6.912216    7.534058    9.893469      5.00      14.0067
     172     2 N    7    6.712147    7.327703    8.616428      5.00      14.0067
     173     2 N    7    5.618280    6.547880    8.417095      5.00      14.0067
     174     3 C    6    5.148619    6.281006    9.638583      4.00      12.0107
     175     1 O    8    9.187359    8.354775   12.372783      6.00      15.9994
     176     2 N    7    9.434091    7.613262    0.076466      5.00      14.0067
     177     4 H    1    9.797889    6.829914    0.379060      1.00       1.0079
     178     4 H    1   -1.002665    7.775901   12.280240      1.00       1.0079
     179     4 H    1    9.157782    8.108466    0.725443      1.00       1.0079
     180     4 H    1    7.554142    7.402207   12.665836      1.00       1.0079
     181     1 O    8    3.589397    1.009563    4.474739      6.00      15.9994
     182     2 N    7    3.499313    1.009210    5.796483      5.00      14.0067
     183     2 N    7    2.519520    1.658358    6.445329      5.00      14.0067
     184     2 N    7    2.719589    1.452003    7.722369      5.00      14.0067
     185     2 N    7    3.813456    0.672180    7.921703      5.00      14.0067
     186     3 C    6    4.283117    0.405306    6.700214      4.00      12.0107
     187     1 O    8    5.105232    2.479075   10.501533      6.00      15.9994
     188     2 N    7    6.018391    1.737562    9.726813      5.00      14.0067
     189     4 H    1    5.654593    0.954214    9.424218      1.00       1.0079
     190     4 H    1    4.413656    1.900201   10.594076      1.00       1.0079
     191     4 H    1    6.294700    2.232766    9.077836      1.00       1.0079
     192     4 H    1    6.738449    1.526507   10.208481      1.00       1.0079




 SCF PARAMETERS         Density guess:                                    ATOMIC
                        --------------------------------------------------------
                        max_scf:                                             200
                        max_scf_history:                                       0
                        max_diis:                                              4
                        --------------------------------------------------------
                        eps_scf:                                        1.00E-05
                        eps_scf_history:                                0.00E+00
                        eps_diis:                                       1.00E-01
                        eps_eigval:                                     1.00E-05
                        --------------------------------------------------------
                        level_shift [a.u.]:                                 0.00
                        --------------------------------------------------------
                        No outer SCF

 PW_GRID| Information for grid number                                          1
 PW_GRID| Grid distributed over                                    36 processors
 PW_GRID| Real space group dimensions                                    36    1
 PW_GRID| the grid is blocked:                                                NO
 PW_GRID| Cutoff [a.u.]                                                    150.0
 PW_GRID| spherical cutoff:                                                   NO
 PW_GRID|   Bounds   1            -60      59                Points:         120
 PW_GRID|   Bounds   2            -62      62                Points:         125
 PW_GRID|   Bounds   3            -72      71                Points:         144
 PW_GRID| Volume element (a.u.^3)  0.5222E-02     Volume (a.u.^3)     11279.4793
 PW_GRID| Grid span                                                    FULLSPACE
 PW_GRID|   Distribution                         Average         Max         Min
 PW_GRID|   G-Vectors                            60000.0       60000       60000
 PW_GRID|   G-Rays                                 500.0         500         500
 PW_GRID|   Real Space Points                    60000.0       72000       54000

 PW_GRID| Information for grid number                                          2
 PW_GRID| Number of the reference grid                                         1
 PW_GRID| Grid distributed over                                    36 processors
 PW_GRID| Real space group dimensions                                    36    1
 PW_GRID| the grid is blocked:                                                NO
 PW_GRID| Cutoff [a.u.]                                                     50.0
 PW_GRID| spherical cutoff:                                                   NO
 PW_GRID|   Bounds   1            -36      35                Points:          72
 PW_GRID|   Bounds   2            -36      35                Points:          72
 PW_GRID|   Bounds   3            -40      39                Points:          80
 PW_GRID| Volume element (a.u.^3)  0.2720E-01     Volume (a.u.^3)     11279.4793
 PW_GRID| Grid span                                                    FULLSPACE
 PW_GRID|   Distribution                         Average         Max         Min
 PW_GRID|   G-Vectors                            11520.0       11592       11448
 PW_GRID|   G-Rays                                 160.0         161         159
 PW_GRID|   Real Space Points                    11520.0       11520       11520

 PW_GRID| Information for grid number                                          3
 PW_GRID| Number of the reference grid                                         1
 PW_GRID| Grid distributed over                                    36 processors
 PW_GRID| Real space group dimensions                                    36    1
 PW_GRID| the grid is blocked:                                                NO
 PW_GRID| Cutoff [a.u.]                                                     16.7
 PW_GRID| spherical cutoff:                                                   NO
 PW_GRID|   Bounds   1            -20      19                Points:          40
 PW_GRID|   Bounds   2            -22      22                Points:          45
 PW_GRID|   Bounds   3            -22      22                Points:          45
 PW_GRID| Volume element (a.u.^3)  0.1393         Volume (a.u.^3)     11279.4793
 PW_GRID| Grid span                                                    FULLSPACE
 PW_GRID|   Distribution                         Average         Max         Min
 PW_GRID|   G-Vectors                             2250.0        2320        2200
 PW_GRID|   G-Rays                                  56.2          58          55
 PW_GRID|   Real Space Points                     2250.0        4050        2025

 PW_GRID| Information for grid number                                          4
 PW_GRID| Number of the reference grid                                         1
 PW_GRID| Grid distributed over                                    36 processors
 PW_GRID| Real space group dimensions                                     6    6
 PW_GRID| the grid is blocked:                                                NO
 PW_GRID| Cutoff [a.u.]                                                      5.6
 PW_GRID| spherical cutoff:                                                   NO
 PW_GRID|   Bounds   1            -12      11                Points:          24
 PW_GRID|   Bounds   2            -12      11                Points:          24
 PW_GRID|   Bounds   3            -13      13                Points:          27
 PW_GRID| Volume element (a.u.^3)  0.7253         Volume (a.u.^3)     11279.4793
 PW_GRID| Grid span                                                    FULLSPACE
 PW_GRID|   Distribution                         Average         Max         Min
 PW_GRID|   G-Vectors                              432.0         456         384
 PW_GRID|   G-Rays                                  18.0          19          16
 PW_GRID|   Real Space Points                      432.0         432         432

 POISSON| Solver                                                        PERIODIC
 POISSON| Periodicity                                                        XYZ

 RS_GRID| Information for grid number                                          1
 RS_GRID|   Bounds   1            -60      59                Points:         120
 RS_GRID|   Bounds   2            -62      62                Points:         125
 RS_GRID|   Bounds   3            -72      71                Points:         144
 RS_GRID| Real space distribution over                                  6 groups
 RS_GRID| Real space distribution along direction                              2
 RS_GRID| Border size                                                         23
 RS_GRID| Real space distribution over                                  6 groups
 RS_GRID| Real space distribution along direction                              3
 RS_GRID| Border size                                                         23
 RS_GRID|   Distribution                         Average         Max         Min
 RS_GRID|   Planes                                  66.8          67          66
 RS_GRID|   Distribution                         Average         Max         Min
 RS_GRID|   Planes                                  70.0          70          70

 RS_GRID| Information for grid number                                          2
 RS_GRID|   Bounds   1            -36      35                Points:          72
 RS_GRID|   Bounds   2            -36      35                Points:          72
 RS_GRID|   Bounds   3            -40      39                Points:          80
 RS_GRID| Real space fully replicated
 RS_GRID| Group size                                                           1

 RS_GRID| Information for grid number                                          3
 RS_GRID|   Bounds   1            -20      19                Points:          40
 RS_GRID|   Bounds   2            -22      22                Points:          45
 RS_GRID|   Bounds   3            -22      22                Points:          45
 RS_GRID| Real space fully replicated
 RS_GRID| Group size                                                           1

 RS_GRID| Information for grid number                                          4
 RS_GRID|   Bounds   1            -12      11                Points:          24
 RS_GRID|   Bounds   2            -12      11                Points:          24
 RS_GRID|   Bounds   3            -13      13                Points:          27
 RS_GRID| Real space fully replicated
 RS_GRID| Group size                                                           1

 MD| Molecular Dynamics Protocol 
 MD| Ensemble Type                                                         NPT_F
 MD| Number of Time Steps                                                     10
 MD| Time Step [fs]                                                         0.50
 MD| Temperature [K]                                                      298.15
 MD| Temperature tolerance [K]                                              0.00
 MD| Pressure [Bar]                                                    300000.00
 MD| Barostat time constant [  fs]                                       1000.00
 MD| Print MD information every                                        1 step(s)
 MD| File type     Print frequency[steps]                             File names
 MD| Coordinates            1                                     cp2k-pos-1.xyz
 MD| Simulation Cel         1                                        cp2k-1.cell
 MD| Velocities             1                                     cp2k-vel-1.xyz
 MD| Energies               1                                        cp2k-1.ener
 MD| Dump                   1                                     cp2k-1.restart

 ROT| Rotational Analysis Info 
 ROT| Principal axes and moments of inertia in atomic units:
 ROT|                                1                 2                 3
 ROT| EIGENVALUES            0.256106848E+09   0.292391107E+09   0.332350774E+09
 ROT|      X                    -0.318229030      -0.347987360      -0.881836199
 ROT|      Y                     0.136885499       0.903578729      -0.405965321
 ROT|      Z                     0.938079232      -0.249900538      -0.239910559
 ROT| Number of Rotovibrational vectors:     6

 Calculation of degrees of freedom
                                                      Number of atoms:       192
                                 Number of Intramolecular constraints:         0
                                 Number of Intermolecular constraints:         0
                                  Invariants(translation + rotations):         3
                                                   Degrees of freedom:       573


 Restraints Information
                                  Number of Intramolecular restraints:         0
                                  Number of Intermolecular restraints:         0

 THERMOSTAT| Thermostat Info for PARTICLES
 THERMOSTAT| Type of thermostat                               Nose-Hoover-Chains
 THERMOSTAT| Nose-Hoover-Chain length                                          3
 THERMOSTAT| Nose-Hoover-Chain time constant [  fs]                      1000.00
 THERMOSTAT| Order of Yoshida integrator                                       3
 THERMOSTAT| Number of multiple time steps                                     2
 THERMOSTAT| Initial Potential Energy                                   0.000000
 THERMOSTAT| Initial Kinetic Energy                                     0.000472
 THERMOSTAT| End of Thermostat Info for PARTICLES


 THERMOSTAT| Thermostat Info for BAROSTAT
 THERMOSTAT| Type of thermostat                               Nose-Hoover-Chains
 THERMOSTAT| Nose-Hoover-Chain length                                          3
 THERMOSTAT| Nose-Hoover-Chain time constant [  fs]                      1000.00
 THERMOSTAT| Order of Yoshida integrator                                       3
 THERMOSTAT| Number of multiple time steps                                     2
 THERMOSTAT| Initial Potential Energy                                   0.000000
 THERMOSTAT| Initial Kinetic Energy                                     0.000472
 THERMOSTAT| End of Thermostat Info for BAROSTAT

 ************************** Velocities initialization **************************
 Initial Temperature                                                    298.15 K
 COM velocity:            0.000000000000      0.000000000000      0.000000000000
 *******************************************************************************


 Number of electrons:                                                        720
 Number of occupied orbitals:                                                360
 Number of molecular orbitals:                                               360

 Number of orbital functions:                                               1984
 Number of independent orbital functions:                                   1984

 Extrapolation method: initial_guess

 Atomic guess: The first density matrix is obtained in terms of atomic orbitals
               and electronic configurations assigned to each atomic kind

 Guess for atomic kind: O

 Electronic structure
    Total number of core electrons                                          2.00
    Total number of valence electrons                                       6.00
    Total number of electrons                                               8.00
    Multiplicity                                                   not specified
    S   [  2.00] 2.00
    P      4.00


 *******************************************************************************
                  Iteration          Convergence                     Energy [au]
 *******************************************************************************
                          1        0.702811                     -15.577904332270
                          2        0.612408                     -15.588447180504
                          3        0.955344E-02                 -15.655871208406
                          4        0.223754E-02                 -15.655885053552
                          5        0.157183E-02                 -15.655885461027
                          6        0.124953E-02                 -15.655885607150
                          7        0.312011E-06                 -15.655885858066

 Energy components [Hartree]           Total Energy ::          -15.655885858066
                                        Band Energy ::           -2.983128125584
                                     Kinetic Energy ::           11.754765134683
                                   Potential Energy ::          -27.410650992750
                                      Virial (-V/T) ::            2.331875684345
                                        Core Energy ::          -26.153522949072
                                          XC Energy ::           -3.157392363346
                                     Coulomb Energy ::           13.655029454351
                       Total Pseudopotential Energy ::          -37.943026860963
                       Local Pseudopotential Energy ::          -39.220419683052
                    Nonlocal Pseudopotential Energy ::            1.277392822089
                                        Confinement ::            0.347387772086

 Orbital energies  State     L     Occupation   Energy[a.u.]          Energy[eV]

                       1     0          2.000      -0.861522          -23.443215

                       1     1          4.000      -0.315021           -8.572154


 Total Electron Density at R=0:                                         0.000093

 Guess for atomic kind: N

 Electronic structure
    Total number of core electrons                                          2.00
    Total number of valence electrons                                       5.00
    Total number of electrons                                               7.00
    Multiplicity                                                   not specified
    S   [  2.00] 2.00
    P      3.00


 *******************************************************************************
                  Iteration          Convergence                     Energy [au]
 *******************************************************************************
                          1        0.314603                      -9.513311037226
                          2        0.240982                      -9.524715106536
                          3        0.171660E-02                  -9.545365478140
                          4        0.189497E-03                  -9.545366407342
                          5        0.115171E-03                  -9.545366414563
                          6        0.842367E-04                  -9.545366416530
                          7        0.416372E-07                  -9.545366418792

 Energy components [Hartree]           Total Energy ::           -9.545366418792
                                        Band Energy ::           -2.053285301135
                                     Kinetic Energy ::            6.740378038236
                                   Potential Energy ::          -16.285744457028
                                      Virial (-V/T) ::            2.416147041701
                                        Core Energy ::          -15.542519058333
                                          XC Energy ::           -2.163416690174
                                     Coulomb Energy ::            8.160569329715
                       Total Pseudopotential Energy ::          -22.320027271038
                       Local Pseudopotential Energy ::          -23.240219346165
                    Nonlocal Pseudopotential Energy ::            0.920192075127
                                        Confinement ::            0.371301744695

 Orbital energies  State     L     Occupation   Energy[a.u.]          Energy[eV]

                       1     0          2.000      -0.663125          -18.044549

                       1     1          3.000      -0.242345           -6.594545


 Total Electron Density at R=0:                                         0.000019

 Guess for atomic kind: C

 Electronic structure
    Total number of core electrons                                          2.00
    Total number of valence electrons                                       4.00
    Total number of electrons                                               6.00
    Multiplicity                                                   not specified
    S   [  2.00] 2.00
    P      2.00


 *******************************************************************************
                  Iteration          Convergence                     Energy [au]
 *******************************************************************************
                          1        0.261814E-01                  -5.246264729087
                          2        0.905236E-02                  -5.246529568708
                          3        0.681743E-04                  -5.246565167452
                          4        0.792827E-08                  -5.246565169473

 Energy components [Hartree]           Total Energy ::           -5.246565169473
                                        Band Energy ::           -1.058732595430
                                     Kinetic Energy ::            3.518928170589
                                   Potential Energy ::           -8.765493340062
                                      Virial (-V/T) ::            2.490955460053
                                        Core Energy ::           -8.429377169956
                                          XC Energy ::           -1.450183342358
                                     Coulomb Energy ::            4.632995342842
                       Total Pseudopotential Energy ::          -11.978048809389
                       Local Pseudopotential Energy ::          -12.816738187351
                    Nonlocal Pseudopotential Energy ::            0.838689377962
                                        Confinement ::            0.297434688432

 Orbital energies  State     L     Occupation   Energy[a.u.]          Energy[eV]

                       1     0          2.000      -0.410911          -11.181458

                       1     1          2.000      -0.118455           -3.223332


 Total Electron Density at R=0:                                         0.001337

 Guess for atomic kind: H

 Electronic structure
    Total number of core electrons                                          0.00
    Total number of valence electrons                                       1.00
    Total number of electrons                                               1.00
    Multiplicity                                                   not specified
    S      1.00


 *******************************************************************************
                  Iteration          Convergence                     Energy [au]
 *******************************************************************************
                          1        0.250972E-02                  -0.375256815885
                          2        0.570752E-04                  -0.375258666164
                          3        0.832405E-09                  -0.375258667122

 Energy components [Hartree]           Total Energy ::           -0.375258667122
                                        Band Energy ::           -0.076317618391
                                     Kinetic Energy ::            0.771356566341
                                   Potential Energy ::           -1.146615233463
                                      Virial (-V/T) ::            1.486491829455
                                        Core Energy ::           -0.456090715790
                                          XC Energy ::           -0.314218627334
                                     Coulomb Energy ::            0.395050676003
                       Total Pseudopotential Energy ::           -1.238482237174
                       Local Pseudopotential Energy ::           -1.238482237174
                    Nonlocal Pseudopotential Energy ::            0.000000000000
                                        Confinement ::            0.110349550431

 Orbital energies  State     L     Occupation   Energy[a.u.]          Energy[eV]

                       1     0          1.000      -0.076318           -2.076708


 Total Electron Density at R=0:                                         0.425022
 Re-scaling the density matrix to get the right number of electrons
                  # Electrons              Trace(P)               Scaling factor
                          720               720.000                        1.000


 SCF WAVEFUNCTION OPTIMIZATION

  ----------------------------------- OT ---------------------------------------
  Minimizer      : DIIS                : direct inversion
                                         in the iterative subspace
[...]
 VOLUME[bohr^3]               =          0.112687178389E+05   0.112775356726E+05
 CELL LNTHS[bohr]             =    0.2054925E+02   0.2220775E+02   0.2479122E+02
 AVE. CELL LNTHS[bohr]        =    0.2055792E+02   0.2221015E+02   0.2479693E+02
 CELL ANGLS[deg]              =    0.9004974E+02   0.9510163E+02   0.9002439E+02
 AVE. CELL ANGLS[deg]         =    0.9002743E+02   0.9508761E+02   0.9001318E+02
 *******************************************************************************


 -------------------------------------------------------------------------------
 -                                                                             -
 -                                DBCSR STATISTICS                             -
 -                                                                             -
 -------------------------------------------------------------------------------
 COUNTER                                    TOTAL       BLAS       SMM       ACC
 flops     5 x     8 x     8               450560       0.0%    100.0%      0.0%
 flops    13 x     8 x     8              2342912       0.0%    100.0%      0.0%
 flops     5 x    32 x    32             79298560       0.0%    100.0%      0.0%
 flops    40 x    40 x    40            104320000       0.0%    100.0%      0.0%
 flops    13 x    32 x    32            412352512       0.0%    100.0%      0.0%
 flops     5 x     8 x     5            548864000       0.0%    100.0%      0.0%
 flops     5 x     5 x    40            561600000       0.0%    100.0%      0.0%
 flops    40 x    40 x    64            834560000       0.0%    100.0%      0.0%
 flops    40 x    64 x    40            834560000       0.0%    100.0%      0.0%
 flops    64 x    40 x    40            834560000       0.0%    100.0%      0.0%
 flops    40 x    40 x   328            971929600       0.0%    100.0%      0.0%
 flops    40 x    40 x   331            980819200       0.0%    100.0%      0.0%
 flops    40 x    40 x   333            986745600       0.0%    100.0%      0.0%
 flops   328 x    40 x    40           1186048000       0.0%    100.0%      0.0%
 flops   331 x    40 x    40           1196896000       0.0%    100.0%      0.0%
 flops   333 x    40 x    40           1204128000       0.0%    100.0%      0.0%
 flops     5 x     8 x    13           2854092800       0.0%    100.0%      0.0%
 flops    13 x     8 x     5           2854092800       0.0%    100.0%      0.0%
 flops     5 x    13 x    40           2875392000       0.0%    100.0%      0.0%
 flops    13 x     5 x    40           2875392000       0.0%    100.0%      0.0%
 flops     5 x     5 x    64           4492800000       0.0%    100.0%      0.0%
 flops    64 x    64 x    40           6676480000       0.0%    100.0%      0.0%
 flops    40 x    64 x    64           6676480000       0.0%    100.0%      0.0%
 flops    64 x    40 x    64           6676480000       0.0%    100.0%      0.0%
 flops    40 x    64 x   328           7775436800       0.0%    100.0%      0.0%
 flops    64 x    40 x   328           7775436800       0.0%    100.0%      0.0%
 flops    40 x    64 x   331           7846553600       0.0%    100.0%      0.0%
 flops    64 x    40 x   331           7846553600       0.0%    100.0%      0.0%
 flops    40 x    64 x   333           7893964800       0.0%    100.0%      0.0%
 flops    64 x    40 x   333           7893964800       0.0%    100.0%      0.0%
 flops   328 x    40 x   328           8537866240       0.0%    100.0%      0.0%
 flops   331 x    40 x   328           8615956480       0.0%    100.0%      0.0%
 flops   328 x    40 x   331           8615956480       0.0%    100.0%      0.0%
 flops   328 x    40 x   333           8668016640       0.0%    100.0%      0.0%
 flops   333 x    40 x   328           8668016640       0.0%    100.0%      0.0%
 flops   331 x    40 x   331           8694760960       0.0%    100.0%      0.0%
 flops   331 x    40 x   333           8747297280       0.0%    100.0%      0.0%
 flops   333 x    40 x   331           8747297280       0.0%    100.0%      0.0%
 flops   333 x    40 x   333           8800151040       0.0%    100.0%      0.0%
 flops   328 x    40 x    64           9488384000       0.0%    100.0%      0.0%
 flops   328 x    64 x    40           9488384000       0.0%    100.0%      0.0%
 flops   331 x    40 x    64           9575168000       0.0%    100.0%      0.0%
 flops   331 x    64 x    40           9575168000       0.0%    100.0%      0.0%
 flops   333 x    64 x    40           9633024000       0.0%    100.0%      0.0%
 flops   333 x    40 x    64           9633024000       0.0%    100.0%      0.0%
 flops    13 x     8 x    13          14841282560       0.0%    100.0%      0.0%
 flops    13 x    13 x    40          15068851200       0.0%    100.0%      0.0%
 flops     5 x    13 x    64          23003136000       0.0%    100.0%      0.0%
 flops    13 x     5 x    64          23003136000       0.0%    100.0%      0.0%
 flops     5 x    32 x     5          24150016000       0.0%    100.0%      0.0%
 flops    64 x    64 x    64          53411840000       0.0%    100.0%      0.0%
 flops    64 x    64 x   328          62203494400       0.0%    100.0%      0.0%
 flops    64 x    64 x   331          62772428800       0.0%    100.0%      0.0%
 flops    64 x    64 x   333          63151718400       0.0%    100.0%      0.0%
 flops   328 x    64 x   328          68302929920       0.0%    100.0%      0.0%
 flops   331 x    64 x   328          68927651840       0.0%    100.0%      0.0%
 flops   328 x    64 x   331          68927651840       0.0%    100.0%      0.0%
 flops   333 x    64 x   328          69344133120       0.0%    100.0%      0.0%
 flops   328 x    64 x   333          69344133120       0.0%    100.0%      0.0%
 flops   331 x    64 x   331          69558087680       0.0%    100.0%      0.0%
 flops   333 x    64 x   331          69978378240       0.0%    100.0%      0.0%
 flops   331 x    64 x   333          69978378240       0.0%    100.0%      0.0%
 flops   333 x    64 x   333          70401208320       0.0%    100.0%      0.0%
 flops   328 x    64 x    64          75907072000       0.0%    100.0%      0.0%
 flops   331 x    64 x    64          76601344000       0.0%    100.0%      0.0%
 flops   333 x    64 x    64          77064192000       0.0%    100.0%      0.0%
 flops    13 x    13 x    64         120550809600       0.0%    100.0%      0.0%
 flops     5 x    32 x    13         125580083200       0.0%    100.0%      0.0%
 flops    13 x    32 x     5         125580083200       0.0%    100.0%      0.0%
 flops    13 x    32 x    13         653016432640       0.0%    100.0%      0.0%
 flops inhomo. stacks                           0       0.0%      0.0%      0.0%
 flops total                         2.449910E+12       0.0%    100.0%      0.0%
 flops max/rank                     73.688059E+09       0.0%    100.0%      0.0%
 matmuls inhomo. stacks                         0       0.0%      0.0%      0.0%
 matmuls total                          163677960       0.0%    100.0%      0.0%
 number of processed stacks                906900       0.0%    100.0%      0.0%
 average stack size                                     0.0     180.5       0.0
 marketing flops                     2.650933E+12
 -------------------------------------------------------------------------------
 # multiplications                           2583
 max memory usage/rank             167.489536E+06
 # max total images/rank                        1
 # max 3D layers                                1
 # MPI messages exchanged                  929880
 MPI messages size (bytes):
  total size                       170.458087E+09
  min size                           0.000000E+00
  max size                         887.112000E+03
  average size                     183.311922E+03
 MPI breakdown and total messages size (bytes):
             size <=      128                5610                        0
       128 < size <=     8192                   0                        0
      8192 < size <=    32768              395430              11383864320
     32768 < size <=   131072               70650               7475712000
    131072 < size <=  4194304              458190             151599185920
   4194304 < size <= 16777216                   0                        0
  16777216 < size                               0                        0
 -------------------------------------------------------------------------------
 -                                                                             -
 -                      DBCSR MESSAGE PASSING PERFORMANCE                      -
 -                                                                             -
 -------------------------------------------------------------------------------
 ROUTINE             CALLS      AVE VOLUME [Bytes]
 MP_Group              237
 MP_Bcast               71                     12.
 MP_Allreduce        13723                     21.
 MP_Alltoall         10665                  36790.
 MP_Wait            165312
 MP_ISend            61948                  80454.
 MP_IRecv            61948                  79063.
 MP_Memory           84574
 -------------------------------------------------------------------------------

 MEMORY| Estimated peak process memory [MiB]                                 160

 -------------------------------------------------------------------------------
 ----                             MULTIGRID INFO                            ----
 -------------------------------------------------------------------------------
 count for grid        1:         778084          cutoff [a.u.]          150.00
 count for grid        2:         351208          cutoff [a.u.]           50.00
 count for grid        3:         224403          cutoff [a.u.]           16.67
 count for grid        4:          98385          cutoff [a.u.]            5.56
 total gridlevel count  :        1452080

 -------------------------------------------------------------------------------
 -                                                                             -
 -                         MESSAGE PASSING PERFORMANCE                         -
 -                                                                             -
 -------------------------------------------------------------------------------

 ROUTINE             CALLS      AVE VOLUME [Bytes]
 MP_Group               44
 MP_Bcast             7353                 100524.
 MP_Allreduce        12729                    589.
 MP_Sync                44
 MP_Alltoall          2780                2253286.
 MP_SendRecv          1540                   3591.
 MP_ISendRecv        26040                  42672.
 MP_Wait             39472
 MP_ISend            12264                 106583.
 MP_IRecv            12264                 106583.
 -------------------------------------------------------------------------------


 -------------------------------------------------------------------------------
 -                                                                             -
 -                           R E F E R E N C E S                               -
 -                                                                             -
 -------------------------------------------------------------------------------
 
 CP2K version 7.1, the CP2K developers group (2019).
 CP2K is freely available from https://www.cp2k.org/ .

 Schuett, Ole; Messmer, Peter; Hutter, Juerg; VandeVondele, Joost. 
 Electronic Structure Calculations on Graphics Processing Units, John
 Wiley & Sons, Ltd, 173-190 (2016). 
 GPU-Accelerated Sparse Matrix-Matrix Multiplication for
 Linear Scaling Density Functional Theory.
 https://dx.doi.org/10.1002/9781118670712.ch8

 Borstnik, U; VandeVondele, J; Weber, V; Hutter, J. 
 PARALLEL COMPUTING, 40 (5-6), 47-58 (2014). 
 Sparse matrix multiplication: The distributed block-compressed sparse
 row library.
 https://dx.doi.org/10.1016/j.parco.2014.03.012

 Hutter, J; Iannuzzi, M; Schiffmann, F; VandeVondele, J. 
 WIREs Comput Mol Sci., 4 (1), 15-25 (2014). 
 CP2K: atomistic simulations of condensed matter systems.
 https://dx.doi.org/10.1002/wcms.1159

 Marek, A; Blum, V; Johanni, R; Havu, V; Lang, B; Auckenthaler, T;
 Heinecke, A; Bungartz, H; Lederer, H. 
 Journal of Physics: Condensed Matter, 26 (21), (2014). 
 The ELPA library: scalable parallel eigenvalue solutions for
 electronic structure
 theory and computational science.
 https://dx.doi.org/10.1088/0953-8984/26/21/213201

 Grimme, S; Ehrlich, S; Goerigk, L. 
 JOURNAL OF COMPUTATIONAL CHEMISTRY, 32, 1456 (2011). 
 Effect of the damping function in dispersion corrected density functional theory.
 https://dx.doi.org/10.1002/jcc.21759

 Grimme, S; Antony, J; Ehrlich, S; Krieg, H. 
 JOURNAL OF CHEMICAL PHYSICS, 132 (15), 154104 (2010). 
 A consistent and accurate ab initio parametrization of density
 functional dispersion correction (DFT-D) for the 94 elements H-Pu.
 https://dx.doi.org/10.1063/1.3382344

 VandeVondele, J; Hutter, J. 
 JOURNAL OF CHEMICAL PHYSICS, 127 (11), 114105 (2007). 
 Gaussian basis sets for accurate calculations on molecular systems in
 gas and condensed phases.
 https://dx.doi.org/10.1063/1.2770708

 Krack, M. 
 THEORETICAL CHEMISTRY ACCOUNTS, 114 (1-3), 145-152 (2005). 
 Pseudopotentials for H to Kr optimized for gradient-corrected
 exchange-correlation functionals.
 https://dx.doi.org/10.1007/s00214-005-0655-y

 VandeVondele, J; Krack, M; Mohamed, F; Parrinello, M; Chassaing, T;
 Hutter, J. COMPUTER PHYSICS COMMUNICATIONS, 167 (2), 103-128 (2005). 
 QUICKSTEP: Fast and accurate density functional calculations using a
 mixed Gaussian and plane waves approach.
 https://dx.doi.org/10.1016/j.cpc.2004.12.014

 Frigo, M; Johnson, SG. 
 PROCEEDINGS OF THE IEEE, 93 (2), 216-231 (2005). 
 The design and implementation of FFTW3.
 https://dx.doi.org/10.1109/JPROC.2004.840301

 Kolafa, J. 
 JOURNAL OF COMPUTATIONAL CHEMISTRY, 25 (3), 335-342 (2004). 
 Time-reversible always stable predictor-corrector method for molecular dynamics of polarizable molecules.
 https://dx.doi.org/10.1002/jcc.10385

 VandeVondele, J; Hutter, J. 
 JOURNAL OF CHEMICAL PHYSICS, 118 (10), 4365-4369 (2003). 
 An efficient orbital transformation method for electronic structure
 calculations.
 https://dx.doi.org/10.1063/1.1543154

 Hartwigsen, C; Goedecker, S; Hutter, J. 
 PHYSICAL REVIEW B, 58 (7), 3641-3662 (1998). 
 Relativistic separable dual-space Gaussian pseudopotentials from H to Rn.
 https://dx.doi.org/10.1103/PhysRevB.58.3641

 Lippert, G; Hutter, J; Parrinello, M. 
 MOLECULAR PHYSICS, 92 (3), 477-487 (1997). 
 A hybrid Gaussian and plane wave density functional scheme.
 https://dx.doi.org/10.1080/002689797170220

 Perdew, JP; Burke, K; Ernzerhof, M. 
 PHYSICAL REVIEW LETTERS, 77 (18), 3865-3868 (1996). 
 Generalized gradient approximation made simple.
 https://dx.doi.org/10.1103/PhysRevLett.77.3865

 Goedecker, S; Teter, M; Hutter, J. 
 PHYSICAL REVIEW B, 54 (3), 1703-1710 (1996). 
 Separable dual-space Gaussian pseudopotentials.
 https://dx.doi.org/10.1103/PhysRevB.54.1703

 NOSE, S. JOURNAL OF CHEMICAL PHYSICS, 81 (1), 511-519 (1984). 
 A UNIFIED FORMULATION OF THE CONSTANT TEMPERATURE MOLECULAR-DYNAMICS
 METHODS.
 https://dx.doi.org/10.1063/1.447334

 NOSE, S. MOLECULAR PHYSICS, 52 (2), 255-268 (1984). 
 A MOLECULAR-DYNAMICS METHOD FOR SIMULATIONS IN THE CANONICAL ENSEMBLE.
 https://dx.doi.org/10.1080/00268978400101201


 -------------------------------------------------------------------------------
 -                                                                             -
 -                                T I M I N G                                  -
 -                                                                             -
 -------------------------------------------------------------------------------
 SUBROUTINE                       CALLS  ASD         SELF TIME        TOTAL TIME
                                MAXIMUM       AVERAGE  MAXIMUM  AVERAGE  MAXIMUM
 CP2K                                 1  1.0    0.042    0.044  160.757  160.759
 qs_mol_dyn_low                       1  2.0    0.005    0.005  160.479  160.481
 qs_forces                           11  3.9    0.003    0.003  160.385  160.387
 qs_energies                         11  4.9    0.005    0.005  143.611  143.612
 scf_env_do_scf                      11  5.9    0.002    0.003  134.673  134.674
 scf_env_do_scf_inner_loop          113  6.5    0.005    0.009  124.629  124.630
 velocity_verlet                     10  3.0    0.003    0.008   86.473   86.475
 rebuild_ks_matrix                  124  8.2    0.000    0.000   77.705   77.720
 qs_ks_build_kohn_sham_matrix       124  9.2    0.015    0.017   77.705   77.719
 sum_up_and_integrate               124 10.2    0.026    0.029   67.681   67.693
 integrate_v_rspace                 124 11.2   62.506   63.563   67.655   67.669
 qs_ks_update_qs_env                124  7.5    0.001    0.001   65.042   65.054
 qs_rho_update_rho                  124  7.6    0.001    0.001   64.897   64.900
 calculate_rho_elec                 124  8.6   59.799   61.136   64.896   64.900
 qs_ks_update_qs_env_forces          11  4.9    0.000    0.000   12.719   12.720
 init_scf_loop                       11  6.9    0.000    0.000   10.033   10.034
 qs_vxc_create                      124 10.2    0.003    0.004    7.950    8.001
 xc_vxc_pw_create                   124 11.2    0.233    0.270    7.947    7.999
 pw_transfer                       2367 11.9    0.112    0.125    7.790    7.958
 fft_wrap_pw1pw2                   2119 13.0    0.022    0.024    7.613    7.780
 fft_wrap_pw1pw2_150               1375 14.1    0.545    0.596    7.331    7.500
 dbcsr_multiply_generic            2583 12.4    0.086    0.090    7.399    7.442
 qs_scf_new_mos                     113  7.5    0.001    0.001    6.752    6.774
 qs_scf_loop_do_ot                  113  8.5    0.001    0.001    6.751    6.773
 rs_pw_transfer                    1036 11.8    0.013    0.014    5.377    6.615
 ot_scf_mini                        113  9.5    0.002    0.002    6.354    6.377
 init_scf_run                        11  5.9    0.000    0.001    6.321    6.321
 scf_env_initial_rho_setup           11  6.9    0.000    0.000    6.320    6.321
 fft3d_ps                          2119 15.0    3.421    3.949    5.978    6.185
 wfi_extrapolate                     11  7.9    0.001    0.002    5.666    5.666
 density_rs2pw                      124  9.6    0.004    0.005    4.395    5.529
 multiply_cannon                   2583 13.4    0.197    0.204    4.958    5.133
 xc_rho_set_and_dset_create         124 12.2    0.039    0.042    4.498    4.917
 rs_pw_transfer_RS2PW_150           146 11.4    0.461    0.479    2.812    4.056
 ot_mini                            113 10.5    0.001    0.001    3.997    4.018
 mp_waitany                       12264 13.5    2.686    3.936    2.686    3.936
 prepare_preconditioner              11  7.9    0.000    0.000    3.615    3.617
 rs_distribute_matrix               259 10.9    0.181    0.239    2.549    3.572
 build_core_hamiltonian_matrix_      11  4.9    0.000    0.000    3.049    3.493
 mp_alltoall_d11v                  2829 13.8    2.351    3.467    2.351    3.467
 make_preconditioner                 11  8.9    0.002    0.003    3.346    3.348
 -------------------------------------------------------------------------------

 The number of warnings for this run is : 0
 
 -------------------------------------------------------------------------------
  **** **** ******  **  PROGRAM ENDED AT                 2023-12-25 07:26:28.336
 ***** ** ***  *** **   PROGRAM RAN ON                                  stonehpc
 **    ****   ******    PROGRAM RAN BY                                  stonehpc
 ***** **    ** ** **   PROGRAM PROCESS ID                                 16462
  **** **  *******  **  PROGRAM STOPPED IN            /home/stonehpc/TKX-50-AIMD
