      12
 i =        0, time =        0.000, E =      -448.6591224137
  H         5.6816501681        7.3543506057        4.7277385175
  H         6.1718932101        7.8105050900        4.4195201570
 Ag         2.8734922690        2.8448028960        6.2195360780
 Ag         4.1418792980        4.4592187360        4.3284196920
 Ag         2.6153719890        4.5855038650        8.3825152360
 Cu         5.9155408280        5.9155408280        5.9155408280
 Cu         5.6412013700        3.1681842740        6.2972320010
 Cu         5.3825822850        4.9092612190        8.4598384790
 Cu         3.8098825140        7.2691715220        4.5696780260
 Cu         4.2767519010        2.2974519870        8.6287356490
 Cu         3.7734293140        6.9226754940        7.3882205560
 Cu         2.0000000000        5.4616617430        5.8065814610
