      12
 i =        0, time =        0.000, E =      -448.6591224137
  H        -0.0150703934       -0.0134917733        0.0093066558
  H         0.0276182546        0.0193956427       -0.0121173240
 Ag         0.0049979010        0.0072755993        0.0054979416
 Ag         0.0005292702        0.0090740802        0.0121416827
 Ag         0.0094790407        0.0020730922       -0.0094199819
 Cu        -0.0203168411       -0.0162977171        0.0157048552
 Cu        -0.0150723635        0.0192369605        0.0131831611
 Cu        -0.0146777475       -0.0064439541       -0.0259953856
 Cu        -0.0147136332       -0.0170177615        0.0162549438
 Cu         0.0071809566        0.0159764246       -0.0115612047
 Cu         0.0051356519       -0.0237795545       -0.0179967911
 Cu         0.0247972022        0.0040497140        0.0048519824
