#     Step Nr.          Time[fs]        Kin.[a.u.]          Temp[K]            Pot.[a.u.]        Cons Qty[a.u.]        UsedTime[s]
         0            0.000000         0.437020517       800.000000000      -511.523420184      -511.086399667         0.000000000
         1            1.000000         0.598092592      1094.854943186      -511.762428401      -511.161085422       168.146959590
         2            2.000000         0.725366787      1327.840242668      -511.879472061      -511.147416688        38.101399265
         3            3.000000         0.710048506      1299.798939371      -511.858156598      -511.138928254        34.997188081
