     116
 i =        0, time =        0.000, E =      -511.5234201843
  I         1.0574263000        7.8135035100        3.2025012800
 Rb         8.5941140100        8.6100434100        6.3920960200
  N         5.3928101800        5.4028065200        4.0109673300
  H         6.0428745100        6.0541492400        4.4945756100
  N         3.8051715500        3.8121505600        2.8301474300
  C         5.1202246700        3.0130072000        3.0090321600
  H         4.9167054400        2.0707822500        3.6100900100
  H         5.4619603500        2.6201208800        2.1510049700
  C         6.1450852600        4.1065913600        3.5110968000
  H         6.8269847800        4.5570856100        2.8304055600
  H         6.7149238400        3.6060931400        4.2307658100
  C         3.0677328300        2.6511701200        2.1792703100
  H         2.1415984400        3.2611446300        2.0375564300
  I         4.2012388400        0.5578812800        6.2647084100
  C         4.0873014200        5.2780616800        2.1874014300
  H         4.6879714700        5.0273288400        1.4041031500
  H         3.1275639500        5.7520354800        1.9321099500
  C         4.8222735700        6.3275602600        3.0192283300
  H         4.1482366600        7.1326736900        3.4190731200
  H         5.6603452700        6.9061120300        2.5774372500
  H         2.8539908600        1.6187230900        2.6702353200
  I         7.1896551600        4.0606829100        0.0894423600
  C         3.1971201900        4.1364223300        4.0296818200
  H         2.3562733900        4.8850849500        3.8819018700
  H         2.8435834100        3.0823654600        4.4206211000
  C         4.2733426200        4.8348730100        4.8053652400
  H         4.7084776200        4.0229363000        5.4155867400
  H         3.8925037000        5.7855744400        5.2910385700
  H         3.5376667900        2.4028284600        1.3319555600
  I         8.4348763000        7.8135035100        3.2025012800
 Rb        15.9715640100        8.6100434100        6.3920960200
  N        11.4328921700        6.1424266700        2.9925117800
  H        11.2402249400        7.2599192100        2.8342775200
  N        11.9033555300        3.4136716400        3.3790628300
  C        13.1742938500        4.3330845700        3.5050307200
  H        13.4285057800        4.3131316900        4.4410134400
  H        13.9618624600        3.8091425300        2.9850259800
  C        12.9248645600        5.9160430700        3.0391044100
  H        13.3166452400        6.0897919900        2.1422285200
  H        13.3349077100        6.7584694200        3.6226093600
  C        12.2030258300        2.1050401200        3.6024751400
  H        11.2453452900        1.6539695000        3.4412723800
  I        12.3264423900        0.5998967900        6.1124111600
  C        11.3770498200        3.6431485200        2.1399053400
  H        12.2073613900        3.4330337400        1.5296838400
  H        10.5664171700        2.8383164300        2.0117433400
  C        10.8512192900        5.2337657800        2.0132921200
  H         9.7615563100        5.2776521900        2.1080261700
  H        11.1689975100        5.7612214600        1.1791420500
  H        12.5151190800        2.1386940500        4.3689949200
  I        13.9808147300        4.1180748000        1.0183264900
  C        10.8655067300        3.9650263700        4.2512872200
  H         9.9123199400        3.4322437900        4.0334247200
  H        11.1761449300        3.6240529100        5.1357728200
  C        10.8002122500        5.6658819700        4.1534556000
  H        11.3670410700        6.2092999300        4.8476987100
  H        10.1384916800        5.9391858700        4.0631097700
  H        12.9358528400        1.9341190000        2.9448866200
  I         1.6318492300        8.3381989600        9.6557743200
 Rb         9.1685369400        9.1347388500       12.8453690600
  N         4.9350091800        5.7583448300       10.9655306200
  H         4.9346796500        6.3031275700       11.7649620900
  N         4.9358625200        4.4280079100        9.0132864600
  C         6.1204199400        3.9420781200        9.7463782800
  H         5.9343697500        2.7838827600       10.0178029400
  H         6.8294439200        3.9963089800        9.2480565300
  C         6.2485556500        4.9710325400       10.8047150600
  H         7.0183208700        5.8307459400       10.6605489400
  H         6.4408977100        4.3501287500       11.6216994300
  C         4.9361874900        3.6415215000        7.8590540400
  H         4.0948923600        4.0331541900        7.3354354700
  I         4.7767948800        1.1232625100       12.4207436900
  C         5.0286793100        6.0987641100        8.8084595700
  H         6.0340185400        6.3445458600        8.4599828300
  H         4.2739467400        6.4065348800        8.1605509600
  C         4.7559088900        6.8793302500        9.9772763900
  H         3.7281462800        7.2809872200       10.0420672500
  H         5.4637817000        7.7923291500       10.1207971800
  H         4.8369501400        2.4451368300        8.0264519500
  I         7.7640780900        4.5853783600        6.5427154100
  C         3.6577241300        4.0721350400        9.7014635000
  H         2.8387192800        4.6128814700        9.2326977400
  H         3.5158467700        2.8644937600        9.7133375200
  C         3.8009277800        4.6391070300       10.9616586600
  H         4.0587662200        3.7487983400       11.5854320300
  H         2.9003168700        5.2074827100       11.2636718400
  H         5.8768833400        3.8851633400        7.3918370800
  I         9.0092992300        8.3381989600        9.6557743200
 Rb        16.5459869400        9.1347388500       12.8453690600
  N        13.4512257100        5.8754908200       10.3891242700
  H        14.1684305400        6.4940678400       10.8253655300
  N        11.6995490500        4.3648898900        9.3239470300
  C        12.7494324700        3.3476554200        9.8473074700
  H        12.2648046300        2.7149733600       10.5686543300
  H        13.0843621700        2.5996986300        9.1559037900
  C        13.9260295500        4.2968283000       10.2739978800
  H        14.7624177600        4.3205972300        9.6431259100
  H        14.2700925200        3.9300393500       11.1423503000
  C        10.6638842500        3.4718940500        8.6941075800
  H         9.9681548400        4.1327026000        8.3106540900
  I        12.1542448800        1.1232625100       12.4207436900
  C        12.3864496100        5.4576655100        8.4749544200
  H        12.9934518400        4.8052333400        7.8674433000
  H        11.6093974800        6.0543371700        7.9948309100
  C        13.2372955300        6.5494814400        9.1802971700
  H        12.7341610800        7.6116066000        9.3054906600
  H        14.2249860500        6.7369557200        8.7767094700
  H        10.1614506800        2.7190800800        9.3262702000
  I        15.1415280900        4.5853783600        6.5427154100
  C        11.0543076700        5.2305075900       10.3132337800
  H        10.4423753400        6.0935426200        9.9015149600
  H        10.4246122700        4.4576691000       10.8327222600
  C        12.1558614900        5.8880466300       11.0840127200
  H        12.3111462300        5.2234336500       11.8867998800
  H        11.9570144500        7.0442077900       11.3079412900
  H        11.1541027500        2.8321982000        8.0051561500
     116
 i =        1, time =        1.000, E =      -511.7624284010
  I         1.0608089961        7.8113394969        3.2018451285
 Rb         8.5954535641        8.6089526583        6.3907596874
  N         5.3901678941        5.3979081771        4.0047266665
  H         6.0959298169        6.0121641990        4.5202588333
  N         3.8190403528        3.8064359743        2.8315746262
  C         5.1248624121        3.0092464298        3.0211683037
  H         4.9183251831        2.0610438205        3.6357102420
  H         5.4279879108        2.5872992224        2.1146150105
  C         6.1358180477        4.1141667875        3.5038987530
  H         6.8244819564        4.6084622773        2.8078591605
  H         6.7080466326        3.6509073544        4.2239457256
  C         3.0713453986        2.6498966187        2.1894338532
  H         2.1404136735        3.2635199449        2.0037767692
  I         4.1993714926        0.5573713192        6.2667980601
  C         4.0852896620        5.2919066841        2.1875756797
  H         4.7459401079        5.0414961901        1.3996935876
  H         3.1250749795        5.7109827121        1.9607764146
  C         4.8196155045        6.3305410366        3.0221156569
  H         4.1648637874        7.1289064942        3.4171663905
  H         5.6417141114        6.9265581803        2.5884203247
  H         2.8722718983        1.6265682732        2.7278421757
  I         7.1868417568        4.0607672420        0.0884761262
  C         3.2071374605        4.1366573252        4.0266006908
  H         2.2857071145        4.8731147715        3.8869107333
  H         2.8181621374        3.1157621610        4.4074595834
  C         4.2844365606        4.8432091207        4.8167506824
  H         4.7224875910        3.9894603057        5.4313712642
  H         3.9019538387        5.7804663894        5.2952060616
  H         3.5017032167        2.3950848123        1.3315875514
  I         8.4316675045        7.8136373627        3.2015769882
 Rb        15.9711945793        8.6137136614        6.3947163977
  N        11.4286488126        6.1468879753        2.9992408761
  H        11.2930826128        7.2761005393        2.8668720360
  N        11.9056283571        3.4098126517        3.3744460778
  C        13.1875381478        4.3394823212        3.4994129788
  H        13.4007510527        4.2858870559        4.4743896440
  H        13.9170172495        3.8330225930        2.9786311436
  C        12.9204881090        5.9290814631        3.0450334529
  H        13.3228801318        6.0849165861        2.1240734121
  H        13.2965697866        6.7530196419        3.6317162811
  C        12.2011125929        2.1058090816        3.5846166036
  H        11.2318924707        1.6195032740        3.4285698649
  I        12.3248152096        0.5987877137        6.1114778836
  C        11.3770750744        3.6389839791        2.1380679092
  H        12.1614327056        3.3887377135        1.5199751855
  H        10.5617013771        2.8331955562        1.9853936553
  C        10.8554686841        5.2350269625        1.9974827746
  H         9.7744989649        5.3161528618        2.1076150827
  H        11.1302282748        5.7541182740        1.1557408799
  H        12.5650000175        2.1230189567        4.4620278402
  I        13.9820832887        4.1179364296        1.0178813827
  C        10.8733463638        3.9585796263        4.2596305602
  H         9.9278973540        3.4913148183        4.0599548171
  H        11.1814739702        3.6252821897        5.1633142442
  C        10.8026642324        5.6572145597        4.1432789883
  H        11.3466564185        6.1846891465        4.8551810935
  H         9.9921855687        6.0005008789        4.0325570424
  H        12.9952576545        1.9132311143        2.9673024196
  I         1.6321005864        8.3379126107        9.6589326142
 Rb         9.1691961569        9.1334703190       12.8442565556
  N         4.9313560838        5.7624691518       10.9732120999
  H         4.9482099807        6.2779325661       11.7852198483
  N         4.9342265350        4.4293810020        9.0108472626
  C         6.1230568982        3.9353726820        9.7557638383
  H         5.9114769537        2.8208107243        9.9827336094
  H         6.8879006592        3.9776367914        9.2409295987
  C         6.2429449149        4.9779012537       10.8142321099
  H         7.0465158667        5.8406923339       10.7033081811
  H         6.4548362649        4.3579506277       11.6373416696
  C         4.9432744181        3.6428939654        7.8405712326
  H         4.1102730376        4.0557965126        7.3885139503
  I         4.7763447297        1.1210994768       12.4194693454
  C         5.0336244025        6.0849835315        8.8124616504
  H         6.0166290346        6.3780296465        8.4366967779
  H         4.2467756803        6.3892168132        8.1377797963
  C         4.7499030890        6.8655801645        9.9751241492
  H         3.7040017456        7.2409723935       10.0912217012
  H         5.4444507891        7.7860951411       10.0840291224
  H         4.8472665626        2.4508762467        7.9956980672
  I         7.7642941219        4.5901428125        6.5413377729
  C         3.6534676228        4.0778945147        9.7148651780
  H         2.7875020280        4.6211940786        9.2013901674
  H         3.5128826721        2.8328629187        9.7119981268
  C         3.7959761350        4.6489229109       10.9701751269
  H         4.0334593632        3.7451016490       11.5766935588
  H         2.8909189280        5.2173884364       11.2916425547
  H         5.8726262311        3.9240868927        7.3841655967
  I         9.0109791636        8.3363438255        9.6570859609
 Rb        16.5504824750        9.1379051486       12.8423246909
  N        13.4494390315        5.8790787948       10.3882484459
  H        14.1509350344        6.4892934335       10.8037730406
  N        11.7027598493        4.3658890624        9.3242370594
  C        12.7466581772        3.3493350892        9.8325816593
  H        12.2552372968        2.7344700414       10.5501095962
  H        13.0577030191        2.6064300838        9.1837845685
  C        13.9276634352        4.2991615503       10.2715900996
  H        14.7870129177        4.3336013707        9.5970599267
  H        14.2856455153        3.9471772964       11.1385701657
  C        10.6634400258        3.4764430258        8.6942000692
  H         9.9594510670        4.1130108278        8.3094544828
  I        12.1514182557        1.1212667058       12.4196772474
  C        12.3941549248        5.4517570194        8.4710930057
  H        13.0019720589        4.7800648924        7.8523486039
  H        11.6184062997        6.0413266076        7.9892428700
  C        13.2573162253        6.5567758557        9.1797293440
  H        12.6931012512        7.6148481287        9.3440961181
  H        14.2506207244        6.6829117156        8.8080267500
  H        10.1214856923        2.7491669467        9.3266376502
  I        15.1408976456        4.5854541901        6.5444639902
  C        11.0625714115        5.2268266460       10.3220778607
  H        10.4706687721        6.0522276268        9.8869964792
  H        10.4625566587        4.5012008397       10.8565843411
  C        12.1348462449        5.8838421007       11.0846429594
  H        12.3221473512        5.2181970953       11.9221408385
  H        11.8991935190        7.0608591386       11.2525150462
  H        11.1773796398        2.8266496502        7.9614603557
     116
 i =        2, time =        2.000, E =      -511.8794720608
  I         1.0642272281        7.8091776871        3.2011773126
 Rb         8.5967976271        8.6078908237        6.3894444886
  N         5.3885213787        5.3925701928        3.9998755425
  H         6.1428828265        5.9580070197        4.5511006244
  N         3.8345773582        3.7994572701        2.8315396495
  C         5.1298559492        3.0073693156        3.0348718601
  H         4.9230730941        2.0684296656        3.6636035897
  H         5.3995584626        2.5544788533        2.0601220358
  C         6.1259385069        4.1225835125        3.4948972403
  H         6.8208281045        4.6492926379        2.7781586746
  H         6.7129071293        3.6943172070        4.2397396987
  C         3.0710490290        2.6506605343        2.2008671794
  H         2.1379909185        3.2485338145        1.9667140520
  I         4.1975179745        0.5568480277        6.2688473072
  C         4.0830167902        5.3050764788        2.1861899879
  H         4.8059616361        5.0545076514        1.3798791960
  H         3.1148895092        5.6672144767        1.9825961367
  C         4.8169374905        6.3327449920        3.0247160805
  H         4.1804120955        7.1175611706        3.4222985554
  H         5.6221560058        6.9391818375        2.5924542531
  H         2.8949586257        1.6564067214        2.7863195682
  I         7.1841363132        4.0608565988        0.0875934540
  C         3.2144321228        4.1372809497        4.0254703415
  H         2.2299501875        4.8456725791        3.8916096852
  H         2.7984588497        3.1675613949        4.4006890061
  C         4.2954869555        4.8516272725        4.8305818513
  H         4.7335798208        3.9737281942        5.4465915641
  H         3.9109191067        5.7632051968        5.3056795701
  H         3.4836091194        2.3799734453        1.2943605496
  I         8.4284468598        7.8137956920        3.2006466199
 Rb        15.9710586830        8.6173738790        6.3973356641
  N        11.4262188887        6.1515390715        3.0043442906
  H        11.3408708648        7.2634052778        2.8981169126
  N        11.9077910200        3.4109184182        3.3704719656
  C        13.1980000315        4.3481966216        3.4944396469
  H        13.3792438749        4.2604238274        4.5470309052
  H        13.8862794990        3.8517355068        2.9744449182
  C        12.9150392205        5.9403960895        3.0533323513
  H        13.3357589008        6.0837355302        2.0812216108
  H        13.2630447895        6.7435900633        3.6531620711
  C        12.1969785830        2.1054334249        3.5635457596
  H        11.2249225905        1.5757047389        3.4182278804
  I        12.3229954008        0.5975989960        6.1106792174
  C        11.3727559408        3.6358322080        2.1338766081
  H        12.1185750573        3.3414214095        1.4890004987
  H        10.5614418442        2.8447062655        1.9585720380
  C        10.8592470228        5.2347929249        1.9814672469
  H         9.7859668610        5.3513046412        2.1053783422
  H        11.0973050188        5.7480693455        1.1022086367
  H        12.6352411678        2.0992676993        4.6126883329
  I        13.9836850882        4.1177657259        1.0168965847
  C        10.8808740160        3.9548580740        4.2675219729
  H         9.9372983333        3.5500631039        4.0823822989
  H        11.1925506170        3.6241313109        5.2253758089
  C        10.8131088193        5.6432692137        4.1359465908
  H        11.3309380777        6.1618843103        4.8891760150
  H         9.7330137828        6.0962083108        3.9994165721
  H        13.0701364137        1.8774322588        2.9695904417
  I         1.6323160319        8.3376258293        9.6620813490
 Rb         9.1698559301        9.1322303596       12.8431381844
  N         4.9279424111        5.7647184775       10.9807569701
  H         4.9625530840        6.2611653698       11.8388891473
  N         4.9326610208        4.4307713203        9.0088217220
  C         6.1193721926        3.9284368661        9.7690020090
  H         5.8915592305        2.8743043763        9.9526658773
  H         7.0158179490        3.9619307797        9.1795480201
  C         6.2381092349        4.9865617381       10.8237826428
  H         7.0622718494        5.8303574505       10.7446956132
  H         6.4678640443        4.3692731255       11.6711599279
  C         4.9502679752        3.6424164621        7.8214575892
  H         4.1081176939        4.0768529721        7.4206155162
  I         4.7758923255        1.1189501229       12.4182141343
  C         5.0383732342        6.0704956982        8.8134730730
  H         5.9996837120        6.4020693834        8.4088798208
  H         4.2199726037        6.3655050373        8.1032075565
  C         4.7438412882        6.8521883625        9.9744951876
  H         3.6859386054        7.1979519222       10.1383423884
  H         5.4185491634        7.7634637852       10.0508826255
  H         4.8589077236        2.4828405298        7.9645060913
  I         7.7646213783        4.5949279999        6.5399294726
  C         3.6480116999        4.0821882857        9.7246938298
  H         2.7470706766        4.6181591032        9.1668801386
  H         3.5125768668        2.8331641438        9.7104117551
  C         3.7907060180        4.6606284229       10.9827352367
  H         4.0130316267        3.7539466528       11.5790848081
  H         2.8856334058        5.2201768778       11.3223741251
  H         5.8678509511        3.9576569289        7.3675642266
  I         9.0126499224        8.3344885580        9.6583812529
 Rb        16.5549451308        9.1410821245       12.8393121163
  N        13.4476487526        5.8812030361       10.3892169863
  H        14.1393086604        6.4803771719       10.7992680843
  N        11.7061672457        4.3664775237        9.3240743631
  C        12.7441759607        3.3547498860        9.8190393633
  H        12.2434343419        2.7559164771       10.5465273646
  H        13.0378618640        2.6051600006        9.1869320045
  C        13.9283710284        4.3025416516       10.2667372088
  H        14.8079690226        4.3459814272        9.5456333768
  H        14.3125676343        3.9600750092       11.1722574124
  C        10.6642760421        3.4799710595        8.6938240085
  H         9.9327948703        4.1066204465        8.2933032117
  I        12.1486048951        1.1192650312       12.4186667334
  C        12.4016309020        5.4457302421        8.4651245099
  H        13.0115578738        4.7649877596        7.8297161869
  H        11.6242783656        6.0220436789        7.9765278943
  C        13.2751335649        6.5639784308        9.1776810470
  H        12.6648613802        7.5946429260        9.3789417584
  H        14.2799593293        6.6322829579        8.8257936466
  H        10.0880730519        2.7844095631        9.3347695927
  I        15.1403234404        4.5855154591        6.5462064861
  C        11.0702346836        5.2225855599       10.3309415225
  H        10.4952292970        6.0027247126        9.8672568283
  H        10.4957981267        4.5507511868       10.8905677610
  C        12.1145312525        5.8813510024       11.0874120213
  H        12.3325517133        5.2209437729       11.9677643484
  H        11.8459243205        7.0505938242       11.2011972070
  H        11.1976443066        2.8263766976        7.9158883787
     116
 i =        3, time =        3.000, E =      -511.8581565984
  I         1.0676985396        7.8070052721        3.2004956838
 Rb         8.5981535978        8.6068521000        6.3881452398
  N         5.3881823296        5.3869859924        3.9967259815
  H         6.1784347941        5.8918743044        4.5819825820
  N         3.8514373425        3.7913616408        2.8301756045
  C         5.1355845212        3.0066052067        3.0484633107
  H         4.9314770161        2.0926616415        3.6928914506
  H         5.3732667196        2.5292928787        2.0076411025
  C         6.1161532947        4.1319541023        3.4839268389
  H         6.8115941894        4.6749853606        2.7465810211
  H         6.7274800355        3.7378101165        4.2735313966
  C         3.0676173118        2.6531205750        2.2122199814
  H         2.1350844935        3.2174017688        1.9303031534
  I         4.1956690582        0.5563089177        6.2708677288
  C         4.0819343644        5.3169225152        2.1825035491
  H         4.8565008449        5.0695927509        1.3559924994
  H         3.0919731259        5.6243573568        1.9954460612
  C         4.8143846990        6.3340155829        3.0271538037
  H         4.1908869285        7.1024921634        3.4368744117
  H         5.6039187215        6.9445383773        2.5887628650
  H         2.9210254885        1.7070194563        2.8431926053
  I         7.1815304255        4.0609529440        0.0867924389
  C         3.2188587786        4.1390316782        4.0261467547
  H         2.1953862081        4.8035778284        3.8955436479
  H         2.7840822885        3.2290431324        4.4031185228
  C         4.3064490134        4.8592618307        4.8464908657
  H         4.7404694711        3.9788588197        5.4588452247
  H         3.9180111700        5.7390565041        5.3247610499
  H         3.4764789905        2.3605859728        1.2378573011
  I         8.4251844089        7.8139900439        3.1996989510
 Rb        15.9711552457        8.6210438188        6.3999682293
  N        11.4256299950        6.1560987849        3.0076187819
  H        11.3806265955        7.2258162798        2.9263784188
  N        11.9097953405        3.4165201701        3.3670641331
  C        13.2050170033        4.3596854612        3.4932552150
  H        13.3599135659        4.2388225718        4.6283207248
  H        13.8816566335        3.8577329254        2.9657556552
  C        12.9091890780        5.9497383003        3.0622333146
  H        13.3477482766        6.0847462693        2.0333823004
  H        13.2375063521        6.7348183568        3.6890119810
  C        12.1941321479        2.1031407819        3.5439478957
  H        11.2290718432        1.5274195553        3.4104639077
  I        12.3209739923        0.5963092235        6.1100296047
  C        11.3641408728        3.6338490635        2.1272345766
  H        12.0812531552        3.2924987147        1.4381193653
  H        10.5630392952        2.8713028329        1.9336825778
  C        10.8626996108        5.2336299943        1.9648719628
  H         9.7945879669        5.3811431310        2.1015931207
  H        11.0700168975        5.7405495625        1.0274735496
  H        12.6968113231        2.0707255789        4.7497023075
  I        13.9856114251        4.1175568805        1.0153753735
  C        10.8893711190        3.9539290384        4.2764359686
  H         9.9316567888        3.6019497680        4.0983727939
  H        11.2043528312        3.6261013670        5.3015813675
  C        10.8211205953        5.6281628504        4.1308490846
  H        11.3176143594        6.1399402916        4.9446764081
  H         9.4887570167        6.1771696334        3.9767274358
  H        13.1435300916        1.8329871011        2.9639649747
  I         1.6324988771        8.3373367713        9.6652366374
 Rb         9.1705196468        9.1310123200       12.8420067176
  N         4.9249810509        5.7655714235       10.9891718335
  H         4.9768550448        6.2467981672       11.9110441431
  N         4.9314387047        4.4321648142        9.0072188772
  C         6.1150419346        3.9228624258        9.7820632053
  H         5.8727541077        2.9290356305        9.9325924516
  H         7.1465964342        3.9464591109        9.1097847012
  C         6.2342476870        4.9962752232       10.8338492245
  H         7.0643670237        5.8013538236       10.7828480454
  H         6.4773207652        4.3870854454       11.7163693203
  C         4.9571506288        3.6407438344        7.8021138261
  H         4.0861111553        4.0966692166        7.4289247302
  I         4.7754358330        1.1168010460       12.4169702095
  C         5.0419558881        6.0554100485        8.8107988369
  H         5.9836269674        6.4156164169        8.3777053035
  H         4.2017622296        6.3336480220        8.0661028788
  C         4.7372078891        6.8388958800        9.9755138106
  H         3.6757012830        7.1528066934       10.1803081240
  H         5.3884266290        7.7283974841       10.0229833583
  H         4.8717230321        2.5356978314        7.9337798840
  I         7.7650633305        4.5997625398        6.5384790070
  C         3.6409172280        4.0852479784        9.7305340331
  H         2.7238525176        4.6015080942        9.1349272099
  H         3.5149716831        2.8655687134        9.7095124446
  C         3.7849854395        4.6741989206       10.9990061874
  H         3.9986554572        3.7739267399       11.5937771185
  H         2.8846527421        5.2163809213       11.3546255703
  H         5.8628023556        3.9860313439        7.3418158057
  I         9.0143225431        8.3326218411        9.6596661936
 Rb        16.5593988703        9.1442876646       12.8363173412
  N        13.4453413318        5.8815742977       10.3919152370
  H        14.1374516233        6.4708033735       10.8153643256
  N        11.7097232535        4.3665964315        9.3234248996
  C        12.7418925936        3.3640714206        9.8071951493
  H        12.2302146440        2.7791127936       10.5574392716
  H        13.0264519403        2.5924830973        9.1625773063
  C        13.9293444284        4.3065642361       10.2600600557
  H        14.8167035213        4.3571340431        9.4974751240
  H        14.3447356532        3.9738783553       11.2262069630
  C        10.6661553893        3.4825240814        8.6921541045
  H         9.8950043701        4.1103148079        8.2651483467
  I        12.1457887078        1.1172484314       12.4177030708
  C        12.4091191435        5.4394498145        8.4569522502
  H        13.0198795424        4.7621709109        7.8030968338
  H        11.6267557644        5.9977346076        7.9567986030
  C        13.2903630826        6.5707109594        9.1743195384
  H        12.6530289008        7.5525679346        9.4070182743
  H        14.3132509448        6.5880806471        8.8292091964
  H        10.0633896299        2.8231534604        9.3495236770
  I        15.1398056661        4.5855622289        6.5479534339