# Projected DOS for list 1 of 48 atoms, at iteration step i = 0, E(Fermi) =     0.022868 a.u.
#     MO Eigenvalue [a.u.]      Occupation                 s                 p                 d                 f
       1         -2.586562        2.000000        0.00019018        0.00093223        0.00156966        0.00171029
       2         -2.583075        2.000000        0.00023984        0.00109808        0.00163741        0.00182602
       3         -2.582983        2.000000        0.00015031        0.00079940        0.00158431        0.00175096
       4         -2.582170        2.000000        0.00018878        0.00093953        0.00159528        0.00174386
       5         -2.578556        2.000000        0.83658704        0.12510049        0.03105491        0.00239860
       6         -2.578080        2.000000        0.83681499        0.12500412        0.03087502        0.00237606
       7         -2.577923        2.000000        0.83617551        0.12503650        0.03146472        0.00246025
       8         -2.577668        2.000000        0.83618022        0.12535355        0.03123705        0.00238998
       9         -2.577363        2.000000        0.00043419        0.00124044        0.00178400        0.00184440
      10         -2.577182        2.000000        0.83717246        0.12522555        0.03081871        0.00192374
      11         -2.577175        2.000000        0.83537604        0.12511386        0.03167114        0.00281353
      12         -2.577011        2.000000        0.00067298        0.00123496        0.00174035        0.00180568
      13         -2.576692        2.000000        0.00000463        0.00000841        0.00000313        0.00000033
      14         -2.576649        2.000000        0.83599362        0.12540335        0.03148161        0.00242324
      15         -2.576507        2.000000        0.83602810        0.12519456        0.03159230        0.00246733
      16         -2.576260        2.000000        0.00000430        0.00000804        0.00000294        0.00000031
      17         -2.575996        2.000000        0.00026916        0.00115785        0.00174794        0.00180145
      18         -2.575005        2.000000        0.00022991        0.00117542        0.00176772        0.00181269
      19         -2.574552        2.000000        0.00000645        0.00001119        0.00000415        0.00000039
      20         -2.571413        2.000000        0.00000518        0.00000931        0.00000345        0.00000036
      21         -2.571349        2.000000        0.00000641        0.00001094        0.00000410        0.00000039
      22         -2.566003        2.000000        0.00000622        0.00001045        0.00000380        0.00000038
      23         -2.560982        2.000000        0.00000566        0.00000930        0.00000334        0.00000033
      24         -2.559921        2.000000        0.00000508        0.00000831        0.00000300        0.00000031
      25         -1.492938        2.000000        0.00011813        0.00078649        0.00076496        0.00032988
      26         -1.489559        2.000000        0.00014597        0.00085770        0.00091561        0.00050525
      27         -1.488902        2.000000        0.00012483        0.00084456        0.00080746        0.00035281
      28         -1.488776        2.000000        0.00004751        0.00028307        0.00042561        0.00036692
      29         -1.488331        2.000000        0.00010624        0.00078073        0.00069695        0.00030335
      30         -1.487924        2.000000        0.00012043        0.00080026        0.00077452        0.00033773
      31         -1.487017        2.000000        0.00007802        0.00055182        0.00055847        0.00042007
      32         -1.486434        2.000000        0.00010609        0.00079858        0.00071429        0.00045970
      33         -1.485827        2.000000        0.00011451        0.00082115        0.00071701        0.00046441
      34         -1.485731        2.000000        0.00013566        0.00128114        0.00093020        0.00043356
      35         -1.485680        2.000000        0.00012445        0.00082867        0.00062781        0.00052348
      36         -1.484506        2.000000        0.00012975        0.00194896        0.00065349        0.00043068
      37         -1.483777        2.000000        0.02258822        0.95620267        0.01743397        0.00055562
      38         -1.483540        2.000000        0.00000278        0.00010092        0.00000331        0.00000085
      39         -1.483194        2.000000        0.02243859        0.95704791        0.01742009        0.00056751
      40         -1.483043        2.000000        0.02295346        0.95625062        0.01749724        0.00060344
      41         -1.482978        2.000000        0.02286874        0.95607232        0.01782171        0.00051973
      42         -1.482914        2.000000        0.00000169        0.00007174        0.00000193        0.00000033
      43         -1.482723        2.000000        0.02106977        0.85189088        0.01626593        0.00058661
      44         -1.482703        2.000000        0.00285426        0.10488333        0.00262738        0.00032140
      45         -1.482475        2.000000        0.00018572        0.00288977        0.00089411        0.00032717
      46         -1.482371        2.000000        0.02276389        0.95664462        0.01772300        0.00056568
      47         -1.482160        2.000000        0.02360839        0.95503068        0.01788326        0.00054593
      48         -1.482103        2.000000        0.02051369        0.96006774        0.01732970        0.00050706
      49         -1.481956        2.000000        0.02355812        0.95501762        0.01805508        0.00056783
      50         -1.481718        2.000000        0.02053457        0.96039484        0.01715197        0.00049747
      51         -1.481583        2.000000        0.02050914        0.96026025        0.01748128        0.00050732
      52         -1.481443        2.000000        0.01761701        0.96273353        0.01541615        0.00058954
      53         -1.481198        2.000000        0.00151209        0.06465030        0.00195030        0.00033464
      54         -1.481174        2.000000        0.01558458        0.74955803        0.01327539        0.00047269
      55         -1.481095        2.000000        0.00001200        0.00031195        0.00000728        0.00000042
      56         -1.481042        2.000000        0.00333941        0.16443771        0.00354419        0.00042256
      57         -1.480926        2.000000        0.00001134        0.00027886        0.00000643        0.00000041
      58         -1.480847        2.000000        0.01767142        0.96183391        0.01538249        0.00059536
      59         -1.480758        2.000000        0.01757577        0.95973509        0.01528717        0.00058637
      60         -1.480731        2.000000        0.02024723        0.96075917        0.01721120        0.00049298
      61         -1.480578        2.000000        0.01956917        0.95116499        0.01687086        0.00045842
      62         -1.480533        2.000000        0.01667920        0.92692231        0.01483031        0.00056994
      63         -1.480523        2.000000        0.00003619        0.00193128        0.00003203        0.00000119
      64         -1.480438        2.000000        0.00069767        0.03132471        0.00098500        0.00042592
      65         -1.480334        2.000000        0.00050048        0.02094938        0.00117478        0.00033193
      66         -1.480196        2.000000        0.01720663        0.93973088        0.01500851        0.00058642
      67         -1.480053        2.000000        0.01860776        0.94078903        0.01619346        0.00050016
      68         -1.479995        2.000000        0.01790234        0.95616331        0.01561953        0.00055855
      69         -1.479952        2.000000        0.01914077        0.92688204        0.01660977        0.00045525
      70         -1.479741        2.000000        0.00101012        0.05065295        0.00183520        0.00051523
      71         -1.479679        2.000000        0.00366370        0.19538486        0.00390747        0.00055739
      72         -1.479516        2.000000        0.01405275        0.77885493        0.01246793        0.00054566
      73         -1.479483        2.000000        0.00991814        0.54713321        0.00894743        0.00053988
      74         -1.479411        2.000000        0.00000794        0.00014175        0.00000396        0.00000034
      75         -1.479371        2.000000        0.00763959        0.42161905        0.00700441        0.00044327
      76         -1.478943        2.000000        0.00000398        0.00002585        0.00000203        0.00000017
      77         -1.478745        2.000000        0.00024152        0.00633472        0.00108006        0.00050917
      78         -1.478477        2.000000        0.00010138        0.00182703        0.00064040        0.00042074
      79         -1.478443        2.000000        0.00000390        0.00001677        0.00000186        0.00000017
      80         -1.477959        2.000000        0.00000104        0.00000344        0.00000060        0.00000015
      81         -1.477772        2.000000        0.00000342        0.00001156        0.00000166        0.00000022
      82         -1.477671        2.000000        0.00013115        0.00203116        0.00075477        0.00040844
      83         -1.477462        2.000000        0.00002112        0.00032660        0.00013334        0.00007100
      84         -1.476431        2.000000        0.00000713        0.00001402        0.00000357        0.00000198
      85         -1.475961        2.000000        0.00000447        0.00000696        0.00000190        0.00000016
      86         -1.474404        2.000000        0.00000382        0.00000668        0.00000173        0.00000016
      87         -1.473923        2.000000        0.00000335        0.00000651        0.00000158        0.00000019
      88         -1.472735        2.000000        0.00000096        0.00000185        0.00000060        0.00000020
      89         -1.470675        2.000000        0.00000516        0.00000672        0.00000207        0.00000017
      90         -1.469346        2.000000        0.00000331        0.00000560        0.00000162        0.00000018
      91         -1.467647        2.000000        0.00000090        0.00000158        0.00000046        0.00000011
      92         -1.466707        2.000000        0.00000095        0.00000163        0.00000050        0.00000011
      93         -1.465453        2.000000        0.00000506        0.00000652        0.00000221        0.00000012
      94         -1.463994        2.000000        0.00000487        0.00000608        0.00000211        0.00000011
      95         -1.463486        2.000000        0.00000265        0.00000475        0.00000157        0.00000014
      96         -1.462305        2.000000        0.00000240        0.00000432        0.00000144        0.00000014
      97         -0.799558        2.000000        0.00000000        0.00000000        0.00000000        0.00000000
      98         -0.793026        2.000000        0.00000003        0.00000004        0.00000002        0.00000001
      99         -0.792845        2.000000        0.00000057        0.00000062        0.00000030        0.00000008
     100         -0.788244        2.000000        0.00000017        0.00000014        0.00000009        0.00000002
     101         -0.788001        2.000000        0.00000007        0.00000011        0.00000004        0.00000002
     102         -0.785481        2.000000        0.00000004        0.00000006        0.00000002        0.00000001
     103         -0.784556        2.000000        0.00000033        0.00000030        0.00000017        0.00000006
     104         -0.784044        2.000000        0.00000010        0.00000010        0.00000007        0.00000001
     105         -0.783689        2.000000        0.00000022        0.00000037        0.00000015        0.00000007
     106         -0.782610        2.000000        0.00000002        0.00000002        0.00000001        0.00000000
     107         -0.781521        2.000000        0.00000018        0.00000029        0.00000014        0.00000005
     108         -0.781081        2.000000        0.00000007        0.00000010        0.00000010        0.00000004
     109         -0.780862        2.000000        0.00000006        0.00000006        0.00000004        0.00000001
     110         -0.780144        2.000000        0.00000044        0.00000059        0.00000041        0.00000013
     111         -0.779124        2.000000        0.00000012        0.00000018        0.00000007        0.00000002
     112         -0.777906        2.000000        0.00000033        0.00000043        0.00000021        0.00000006
     113         -0.777527        2.000000        0.00000056        0.00000090        0.00000030        0.00000010
     114         -0.776636        2.000000        0.00000067        0.00000056        0.00000033        0.00000008
     115         -0.776058        2.000000        0.00000014        0.00000019        0.00000012        0.00000004
     116         -0.775062        2.000000        0.00000008        0.00000011        0.00000007        0.00000003
     117         -0.774061        2.000000        0.00000005        0.00000008        0.00000008        0.00000003
     118         -0.773380        2.000000        0.00000033        0.00000047        0.00000044        0.00000013
     119         -0.772643        2.000000        0.00000045        0.00000069        0.00000060        0.00000023
     120         -0.772100        2.000000        0.00000023        0.00000040        0.00000032        0.00000012
     121         -0.771151        2.000000        0.00000012        0.00000017        0.00000016        0.00000006
     122         -0.771051        2.000000        0.00000011        0.00000022        0.00000025        0.00000010
     123         -0.770195        2.000000        0.00000040        0.00000066        0.00000030        0.00000013
     124         -0.769897        2.000000        0.00000014        0.00000014        0.00000009        0.00000003
     125         -0.769114        2.000000        0.00000056        0.00000066        0.00000056        0.00000018
     126         -0.768966        2.000000        0.00000049        0.00000047        0.00000028        0.00000009
     127         -0.768181        2.000000        0.00000012        0.00000017        0.00000021        0.00000009
     128         -0.767614        2.000000        0.00000013        0.00000024        0.00000020        0.00000007
     129         -0.766610        2.000000        0.00000121        0.00000164        0.00000071        0.00000025
     130         -0.766075        2.000000        0.00000017        0.00000027        0.00000030        0.00000013
     131         -0.765645        2.000000        0.00000023        0.00000033        0.00000029        0.00000010
     132         -0.765006        2.000000        0.00000008        0.00000011        0.00000008        0.00000003
     133         -0.764617        2.000000        0.00000031        0.00000039        0.00000031        0.00000012
     134         -0.763663        2.000000        0.00000054        0.00000066        0.00000028        0.00000010
     135         -0.761925        2.000000        0.00000021        0.00000034        0.00000028        0.00000012
     136         -0.761783        2.000000        0.00000017        0.00000016        0.00000013        0.00000005
     137         -0.761411        2.000000        0.00000014        0.00000023        0.00000013        0.00000005
     138         -0.760965        2.000000        0.00000050        0.00000043        0.00000024        0.00000008
     139         -0.759659        2.000000        0.00000023        0.00000027        0.00000022        0.00000008
     140         -0.759050        2.000000        0.00000017        0.00000029        0.00000015        0.00000005
     141         -0.758393        2.000000        0.00000004        0.00000009        0.00000010        0.00000004
     142         -0.757344        2.000000        0.00000027        0.00000031        0.00000016        0.00000008
     143         -0.756970        2.000000        0.00000033        0.00000037        0.00000026        0.00000010
     144         -0.756288        2.000000        0.00000055        0.00000058        0.00000026        0.00000007
     145         -0.755475        2.000000        0.00000060        0.00000060        0.00000023        0.00000009
     146         -0.754847        2.000000        0.00000023        0.00000037        0.00000028        0.00000010
     147         -0.754547        2.000000        0.00000184        0.00000179        0.00000060        0.00000025
     148         -0.754243        2.000000        0.00000041        0.00000036        0.00000025        0.00000008
     149         -0.752307        2.000000        0.00000015        0.00000019        0.00000023        0.00000010
     150         -0.751733        2.000000        0.00000041        0.00000039        0.00000015        0.00000005
     151         -0.751033        2.000000        0.00000062        0.00000063        0.00000017        0.00000005
     152         -0.750224        2.000000        0.00000029        0.00000026        0.00000015        0.00000007
     153         -0.750209        2.000000        0.00000050        0.00000036        0.00000024        0.00000008
     154         -0.749974        2.000000        0.00000030        0.00000042        0.00000012        0.00000005
     155         -0.748827        2.000000        0.00000030        0.00000042        0.00000008        0.00000003
     156         -0.748295        2.000000        0.00000050        0.00000038        0.00000012        0.00000003
     157         -0.747891        2.000000        0.00000092        0.00000076        0.00000032        0.00000010
     158         -0.747153        2.000000        0.00000053        0.00000054        0.00000014        0.00000005
     159         -0.745630        2.000000        0.00000009        0.00000017        0.00000014        0.00000006
     160         -0.745120        2.000000        0.00000184        0.00000173        0.00000066        0.00000022
     161         -0.744655        2.000000        0.00000081        0.00000075        0.00000032        0.00000011
     162         -0.744078        2.000000        0.00000021        0.00000029        0.00000016        0.00000007
     163         -0.743556        2.000000        0.00000064        0.00000050        0.00000023        0.00000008
     164         -0.742132        2.000000        0.00000036        0.00000055        0.00000058        0.00000022
     165         -0.741392        2.000000        0.00000087        0.00000068        0.00000022        0.00000007
     166         -0.738008        2.000000        0.00000026        0.00000021        0.00000009        0.00000005
     167         -0.736114        2.000000        0.00000008        0.00000011        0.00000018        0.00000009
     168         -0.732942        2.000000        0.00000017        0.00000015        0.00000007        0.00000003
     169         -0.709827        2.000000        0.14063955        0.00730885        0.00093908        0.00404383
     170         -0.702796        2.000000        0.45664310        0.02502090        0.00373960        0.01285564
     171         -0.696507        2.000000        0.27870213        0.04781246        0.00628938        0.00731125
     172         -0.691861        2.000000        0.02920333        0.00899710        0.00275882        0.00155238
     173         -0.690012        2.000000        0.05755471        0.01731183        0.00376015        0.00302983
     174         -0.684697        2.000000        0.24062237        0.05829750        0.02496563        0.00354336
     175         -0.684030        2.000000        0.37899043        0.08119439        0.02288200        0.00838065
     176         -0.681663        2.000000        0.21470486        0.05236996        0.01750575        0.00751152
     177         -0.680964        2.000000        0.24856041        0.05161004        0.00707196        0.00972046
     178         -0.680773        2.000000        0.34610201        0.09291609        0.05910703        0.00532813
     179         -0.679895        2.000000        0.41712348        0.08257991        0.02142898        0.00991724
     180         -0.678610        2.000000        0.35105263        0.06622582        0.01285985        0.01161755
     181         -0.677539        2.000000        0.30614449        0.06170690        0.02510025        0.00914184
     182         -0.676744        2.000000        0.43637243        0.07972819        0.01972499        0.01928350
     183         -0.675855        2.000000        0.14609650        0.02984690        0.02119910        0.00321618
     184         -0.674291        2.000000        0.12608766        0.02314057        0.01334065        0.00406341
     185         -0.673381        2.000000        0.05836229        0.01475769        0.00832793        0.00222953
     186         -0.672853        2.000000        0.08747840        0.03787484        0.03314841        0.00274874
     187         -0.669259        2.000000        0.16054786        0.05094114        0.03962943        0.00358090
     188         -0.668800        2.000000        0.47569534        0.10506858        0.11070773        0.00692097
     189         -0.668132        2.000000        0.24908490        0.10827739        0.03343234        0.00295318
     190         -0.666753        2.000000        0.56428808        0.06950557        0.11783678        0.00946923
     191         -0.666042        2.000000        0.27577778        0.06374154        0.05802232        0.00641725
     192         -0.665542        2.000000        0.16802158        0.03574173        0.02692042        0.00474943
     193         -0.665253        2.000000        0.11600538        0.02752061        0.01413834        0.00308014
     194         -0.664289        2.000000        0.55913423        0.05442658        0.04475280        0.01183996
     195         -0.663778        2.000000        0.22672838        0.03644769        0.04867689        0.00766180
     196         -0.663526        2.000000        0.32413858        0.03975214        0.05971989        0.01257822
     197         -0.663429        2.000000        0.47359950        0.03001417        0.06647939        0.01710645
     198         -0.663122        2.000000        0.25500542        0.05495975        0.04266025        0.00750251
     199         -0.661986        2.000000        0.42334443        0.04084792        0.06859689        0.01367339
     200         -0.661379        2.000000        0.02667620        0.00787914        0.01407498        0.00151473
     201         -0.660969        2.000000        0.08843157        0.00581828        0.04264645        0.00463690
     202         -0.658210        2.000000        0.10345700        0.02506992        0.03053825        0.00188520
     203         -0.657459        2.000000        0.09629757        0.02231161        0.02813090        0.00240219
     204         -0.657087        2.000000        0.09429834        0.03258410        0.01713822        0.00401001
     205         -0.656804        2.000000        0.08148026        0.03183100        0.02625747        0.00217975
     206         -0.656492        2.000000        0.13096129        0.02459589        0.02843613        0.00233940
     207         -0.655692        2.000000        0.14254728        0.02849105        0.03544303        0.00440459
     208         -0.654858        2.000000        0.15120861        0.04566604        0.02375471        0.00686751
     209         -0.654538        2.000000        0.18572248        0.04596077        0.03294673        0.00454315
     210         -0.654083        2.000000        0.48938277        0.10581429        0.09337529        0.00956659
     211         -0.653897        2.000000        0.35046666        0.07411041        0.07068709        0.00750077
     212         -0.653704        2.000000        0.17255423        0.04592855        0.03004263        0.00518484
     213         -0.652255        2.000000        0.39869411        0.05834105        0.09007808        0.00429324
     214         -0.652138        2.000000        0.32752365        0.04992244        0.07291387        0.00347626
     215         -0.651283        2.000000        0.26644085        0.06300395        0.04418755        0.00734494
     216         -0.650865        2.000000        0.40177518        0.06302221        0.08172881        0.00846483
     217         -0.650790        2.000000        0.26646776        0.06444164        0.04077626        0.00715191
     218         -0.650608        2.000000        0.25875551        0.04510352        0.04944305        0.00474541
     219         -0.650534        2.000000        0.33974853        0.05614713        0.07316510        0.00755997
     220         -0.649932        2.000000        0.24706389        0.03907505        0.04859605        0.00472610
     221         -0.649716        2.000000        0.38576495        0.04942496        0.05651204        0.00596207
     222         -0.649165        2.000000        0.28686985        0.04964874        0.06193549        0.00602986
     223         -0.648850        2.000000        0.39657922        0.02814265        0.06839068        0.00535052
     224         -0.648730        2.000000        0.13438958        0.01848260        0.02949114        0.00245603
     225         -0.648571        2.000000        0.07589283        0.00733808        0.01623617        0.00120360
     226         -0.648273        2.000000        0.41227559        0.05768845        0.10157860        0.00483584
     227         -0.648072        2.000000        0.10429271        0.02151957        0.01663814        0.00154217
     228         -0.647536        2.000000        0.08630016        0.01337628        0.02112145        0.00162407
     229         -0.646847        2.000000        0.45276150        0.06447854        0.11564108        0.00588468
     230         -0.646704        2.000000        0.23400739        0.02527882        0.05752441        0.00413690
     231         -0.646578        2.000000        0.26796950        0.03423982        0.06333840        0.00329579
     232         -0.646430        2.000000        0.42002589        0.04607609        0.10158921        0.00676710
     233         -0.645653        2.000000        0.28740896        0.03723846        0.06238605        0.00443956
     234         -0.645473        2.000000        0.43333114        0.03867839        0.11759777        0.00824965
     235         -0.645362        2.000000        0.20583271        0.01834556        0.05476421        0.00299237
     236         -0.645136        2.000000        0.33414135        0.04056424        0.06404441        0.00563167
     237         -0.644945        2.000000        0.38687434        0.04010802        0.07202641        0.00594492
     238         -0.644502        2.000000        0.17024453        0.02282875        0.03927592        0.00239365
     239         -0.644365        2.000000        0.61750637        0.08578809        0.13522934        0.00340614
     240         -0.644103        2.000000        0.24798158        0.03302864        0.05942429        0.00222060
     241         -0.643933        2.000000        0.19981162        0.02154497        0.04172878        0.00199090
     242         -0.643750        2.000000        0.08891204        0.00699069        0.01472948        0.00105093
     243         -0.643299        2.000000        0.10692956        0.01065002        0.02046208        0.00178484
     244         -0.643054        2.000000        0.27859390        0.03304781        0.06507229        0.00555672
     245         -0.642788        2.000000        0.48369771        0.05618879        0.09975977        0.00899397
     246         -0.642111        2.000000        0.16270678        0.01121345        0.04009687        0.00309307
     247         -0.642003        2.000000        0.08740422        0.00630348        0.02076590        0.00130583
     248         -0.641591        2.000000        0.24320746        0.01769925        0.05159481        0.00441832
     249         -0.641388        2.000000        0.36917766        0.04698982        0.08130397        0.00676243
     250         -0.641022        2.000000        0.24241538        0.02761186        0.05161836        0.00324429
     251         -0.640824        2.000000        0.19346166        0.02149534        0.04641094        0.00351035
     252         -0.640624        2.000000        0.11878671        0.01113861        0.02525951        0.00130233
     253         -0.640135        2.000000        0.52666121        0.07416283        0.09814628        0.00328272
     254         -0.639657        2.000000        0.43518813        0.05430720        0.09091110        0.00612965
     255         -0.639068        2.000000        0.05048843        0.00566500        0.01110010        0.00070576
     256         -0.638218        2.000000        0.04114222        0.00437199        0.00805926        0.00047162
     257         -0.637242        2.000000        0.37820096        0.05006989        0.08856919        0.00772438
     258         -0.637057        2.000000        0.00250422        0.00034568        0.00055117        0.00006698
     259         -0.636371        2.000000        0.34853391        0.05271203        0.07304143        0.00321765