    1020
 i =        0, time =        0.000, E =    -65166.0380298189
  C        -0.0001054025        0.0000071300       -0.0000626339
  C        -0.0000164470        0.0000003991       -0.0000425934
  C        -0.0000182326        0.0000020983        0.0000650890
  H        -0.0000268841       -0.0000068741        0.0000072144
  H         0.0000213571       -0.0000069083       -0.0000026552
  H         0.0000151621        0.0000056929        0.0000063080
  C        -0.0000179529        0.0000012905        0.0000033886
  H        -0.0000271742       -0.0000123133       -0.0000062751
  H        -0.0000296350        0.0000008041       -0.0000145517
  H        -0.0000600223        0.0000092934       -0.0000035433
  N         0.0000968824       -0.0000032883        0.0000050332
  C        -0.0000262765        0.0000684224        0.0000336286
  H         0.0000182377       -0.0000285070        0.0000107911
  C        -0.0000258656       -0.0000552540       -0.0000346774
  H        -0.0000030059        0.0000092824       -0.0000031513
  H         0.0000036813       -0.0000024557       -0.0000171002
  H         0.0000018591       -0.0000095262       -0.0000244430
  N         0.0000859881       -0.0000529226        0.0000426267
  H         0.0000393586       -0.0000273036       -0.0000328178
  C        -0.0000333393       -0.0000058631       -0.0000176727
  C        -0.0000015368       -0.0000546188       -0.0000362539
  C        -0.0000142512       -0.0000252304        0.0000067540
  H        -0.0000068034       -0.0000034934       -0.0000057150
  H        -0.0000129503       -0.0000060355        0.0000064513
  H         0.0000012529       -0.0000012611       -0.0000351602
  C         0.0000091837        0.0000122072        0.0000039415
  H        -0.0000067108       -0.0000180272       -0.0000349549
  H         0.0000267891       -0.0000198903       -0.0000292886
  H         0.0000101580        0.0000070587       -0.0000301553
  N         0.0000141525        0.0000324618       -0.0000165770
  C        -0.0000686613       -0.0000420008       -0.0000086741
  H         0.0000148350       -0.0000116160       -0.0000324006
  C        -0.0000179753        0.0000087134        0.0000197518
  H         0.0000047059       -0.0000093041        0.0000102903
  H         0.0000184909       -0.0000089354       -0.0000238196
  H        -0.0000275578        0.0000170185       -0.0000337663
  N         0.0000091396        0.0000030990       -0.0000234614
  H        -0.0000122244       -0.0000026767       -0.0000136642
  C         0.0001355518        0.0000101681       -0.0001053884
  C         0.0000368282        0.0001414661       -0.0000788575
  C         0.0000297985        0.0000181563        0.0000355439
  H        -0.0000014117        0.0000309686        0.0000132905
  H         0.0000193603        0.0000106101        0.0000166232
  H        -0.0000312253        0.0000082486        0.0000416018
  C         0.0000320845        0.0000678569        0.0000523774
  H         0.0000758997        0.0000246541        0.0000286076
  H        -0.0000033850        0.0000007293       -0.0000555709
  H        -0.0000358357       -0.0000076666        0.0000584001
  N        -0.0001397369       -0.0000027287        0.0000042797
  C        -0.0000887504        0.0000624798        0.0000277056
  H         0.0000037167        0.0000227828       -0.0000149748
  C         0.0000093793       -0.0000804720       -0.0000699888
  H         0.0000104287        0.0000445003        0.0000125323
  H         0.0000220854        0.0000009780       -0.0000126120
  H        -0.0000140379        0.0000157941        0.0000373031
  N        -0.0000442291       -0.0000495172        0.0001140465
  H         0.0000000524        0.0000960687       -0.0000175450
  C         0.0000029070       -0.0000649732       -0.0000358786
  C         0.0000119522        0.0000624477        0.0000247379
  C         0.0000767368       -0.0000336497        0.0000589795
  H        -0.0000000476       -0.0000007417       -0.0000056755
  H        -0.0000313714        0.0000032651       -0.0000024361
  H        -0.0000319315       -0.0000241200        0.0000471798
  C         0.0000419140        0.0000444667       -0.0000349764
  H        -0.0000034781        0.0000127391        0.0000285599
  H         0.0000592325        0.0000126302       -0.0000254431
  H        -0.0000185465       -0.0000173816        0.0000526132
  N        -0.0001754148        0.0000357170       -0.0001313009
  C         0.0000102437       -0.0000284075        0.0000106053
  H         0.0000231894       -0.0000093807       -0.0000020706
  C        -0.0000034352       -0.0000238835        0.0000121313
  H         0.0000423101       -0.0000000208       -0.0000004155
  H         0.0000338340       -0.0000192875        0.0000109417
  H         0.0000208178       -0.0000261538        0.0000043661
  N         0.0000631674        0.0000078661        0.0000359563
  H        -0.0000070497       -0.0000009669        0.0000080883
  C        -0.0001734121        0.0000320374       -0.0001287607
  C        -0.0000501245        0.0000556919       -0.0000157142
  C        -0.0000282045        0.0000300900       -0.0000086532
  H         0.0000516082       -0.0000760748        0.0001036272
  H        -0.0000230209        0.0000005359        0.0000092000
  H        -0.0000356837       -0.0000003760        0.0000007358
  C        -0.0000408611        0.0000319019        0.0000140145
  H         0.0000110021       -0.0000109017       -0.0000007510
  H        -0.0000085616       -0.0000167479       -0.0000306907
  H         0.0000079025       -0.0000125149        0.0000290042
  N        -0.0000077935       -0.0001003914        0.0000921026
  C        -0.0001113236        0.0000570365        0.0000412118
  H        -0.0000080057       -0.0000064140       -0.0000013701
  C         0.0000247711       -0.0000603821       -0.0000787719
  H        -0.0000049897        0.0000044861        0.0000189298
  H        -0.0000032153       -0.0000112720       -0.0000228241
  H         0.0000212366       -0.0000094175       -0.0000156015
  N         0.0001724816        0.0000356764        0.0000328202
  H         0.0000027758       -0.0000367641       -0.0000039858
  C        -0.0000001515       -0.0000208369        0.0000121054
  C        -0.0000062642        0.0000473996       -0.0000158138
  C         0.0000059561       -0.0000251356       -0.0000101387
  H         0.0000418708       -0.0000112235        0.0000257174
  H        -0.0000091633       -0.0000100020       -0.0000285862
  H        -0.0000506992        0.0000172407        0.0000069233
  C        -0.0000131839        0.0000159633        0.0000430225
  H        -0.0000183453        0.0000071969       -0.0000028129
  H         0.0000033264        0.0000366770       -0.0000010628
  H        -0.0000238004        0.0000130193       -0.0000222867
  N         0.0000068896        0.0000005401       -0.0000626395
  C         0.0000306171       -0.0000340641        0.0000525168
  H         0.0000461691       -0.0000051483       -0.0000382015
  C         0.0000399118       -0.0000441235        0.0000026352
  H         0.0000111326        0.0000172604       -0.0000319858
  H         0.0000294207       -0.0000047046        0.0000054413
  H         0.0000117395       -0.0000090285       -0.0000404905
  N         0.0000032365       -0.0000432594       -0.0000338701
  H         0.0000488636       -0.0000020158       -0.0000265867
  C         0.0000101417       -0.0000455691        0.0000020245
  C         0.0000136569       -0.0000109589       -0.0000667631
  C         0.0000764122        0.0000639984        0.0000165798
  H         0.0000180455        0.0000154687       -0.0000018208
  H         0.0000000767       -0.0000006491        0.0000053935
  H         0.0000077979        0.0000176225        0.0000062194
  C         0.0000011429       -0.0000290877        0.0000244168
  H         0.0000145204       -0.0000173857        0.0000158107
  H         0.0000281408        0.0000257541       -0.0000084063
  H         0.0000145697        0.0000098457       -0.0000248820
  N        -0.0000454635        0.0000363577        0.0000598199
  C        -0.0000383973       -0.0000784230       -0.0000066464
  H        -0.0000047052        0.0000135770       -0.0000034192
  C        -0.0000098691        0.0000350318        0.0000161477
  H        -0.0000031402       -0.0000142209        0.0000062169
  H         0.0000206040        0.0000079302        0.0000186849
  H         0.0000092599        0.0000281397        0.0000338911
  N        -0.0000353124       -0.0000717162        0.0000493937
  H         0.0000361600       -0.0000179613       -0.0000444633
  C        -0.0000123641        0.0000380490        0.0000102743
  C        -0.0000303764       -0.0000648522        0.0000534085
  C         0.0000597566        0.0000280535        0.0000484412
  H         0.0000179356       -0.0000175041       -0.0000324195
  H        -0.0000424335       -0.0000034515       -0.0000151718
  H        -0.0000157827       -0.0000094222       -0.0000071831
  C         0.0000073772        0.0000650920       -0.0000330346
  H         0.0000256687        0.0000063662        0.0000296542
  H         0.0000131820        0.0000225290       -0.0000318693
  H        -0.0000335851        0.0000322971       -0.0000125148
  N        -0.0000021434       -0.0000107549       -0.0000417367
  C        -0.0000230639       -0.0000273782       -0.0000590959
  H         0.0000135243       -0.0000219622        0.0000084772
  C         0.0000127059        0.0000073731        0.0000359242
  H        -0.0000096508       -0.0000178338       -0.0000112729
  H        -0.0000079162        0.0000152539       -0.0000236167
  H         0.0000146607       -0.0000057041       -0.0000043105
  N        -0.0000868680       -0.0000278203       -0.0001564371
  H        -0.0000098172       -0.0000107471        0.0000167152
  C         0.0000556384       -0.0000239646       -0.0000464259
  C         0.0000107779       -0.0000386087       -0.0000709040
  C        -0.0000962709       -0.0000313591        0.0000095080
  H         0.0000178136       -0.0000049671       -0.0000107858
  H        -0.0000188880       -0.0000076697        0.0000521811
  H         0.0000082777       -0.0000146987        0.0000075703
  C        -0.0000529222       -0.0000095162        0.0000082767
  H         0.0000168313        0.0000315031       -0.0000055480
  H        -0.0000042186       -0.0000059013        0.0000094425
  H        -0.0000110824       -0.0000168902       -0.0000338705
  N         0.0000129662        0.0000593144        0.0000677804
  C         0.0000986929        0.0000027631       -0.0000198579
  H        -0.0000208413        0.0000254964       -0.0000215377
  C        -0.0000324376        0.0000249888       -0.0000107508
  H        -0.0000432800       -0.0000042936        0.0000342545
  H         0.0000089206       -0.0000206352        0.0000137106
  H         0.0000399814        0.0000069576       -0.0000014930
  N        -0.0000334446       -0.0000249996        0.0001035009
  H        -0.0000241010       -0.0000222353        0.0000213758
  C         0.0001074981        0.0000894730        0.0000037518
  C        -0.0000119116        0.0000238326       -0.0000303130
  C         0.0000355530       -0.0000805985       -0.0000678663
  H        -0.0000634170       -0.0000620478        0.0000161916
  H        -0.0000094352        0.0000104654        0.0000186836
  H        -0.0000589213       -0.0000265594        0.0000411755
  C         0.0000748486        0.0000615804       -0.0000116082
  H        -0.0000183721       -0.0000709873        0.0000022989
  H        -0.0000240856       -0.0000110936       -0.0000023090
  H        -0.0000497160        0.0000477943        0.0000131467
  N        -0.0000403094        0.0000742148       -0.0000138351
  C         0.0000617154        0.0000388108        0.0000754814
  H        -0.0000014294       -0.0000265246       -0.0000169427
  C        -0.0000196079        0.0000102761        0.0000378339
  H        -0.0000275245        0.0000125539       -0.0000114008
  H        -0.0000216781        0.0000129787        0.0000040980
  H        -0.0000078237       -0.0000413222       -0.0000491122
  N        -0.0000699406       -0.0000284323        0.0000437860
  H        -0.0000591918       -0.0000141296       -0.0000060044
  C        -0.0000330949       -0.0000268114       -0.0000107475
  C         0.0001984513       -0.0000369059       -0.0000821781
  C         0.0000927733       -0.0000018269        0.0000733324
  H         0.0000178015        0.0000033893       -0.0000016746
  H        -0.0001011898        0.0000111793       -0.0000425051
  H        -0.0000057860       -0.0000177682        0.0000131503
  C         0.0000442768        0.0000024208       -0.0000542954
  H        -0.0000192598        0.0000364843       -0.0000403371
  H        -0.0000048654        0.0000281822       -0.0000242189
  H         0.0000013803        0.0000420727        0.0001083876
  N        -0.0001517635        0.0000701863       -0.0000533432
  C        -0.0000527876        0.0000261682        0.0001011479
  H         0.0000976295       -0.0000960262        0.0000093786
  C        -0.0000188491        0.0000570142       -0.0000084353
  H         0.0000144606       -0.0000360606       -0.0000116127
  H         0.0000274486       -0.0000770515       -0.0000317178
  H         0.0000329305        0.0000240236       -0.0000410380
  N        -0.0000280253        0.0000408076        0.0000048605
  H         0.0000076592        0.0000165388        0.0000295524
  C         0.0000538932        0.0001704506        0.0000266294
  C         0.0000404121        0.0000015760        0.0000782572
  C         0.0001069874       -0.0000552341        0.0000149511
  H        -0.0000382862        0.0000059152       -0.0000030805
  H         0.0000113665       -0.0000055931       -0.0000251941
  H         0.0000443764       -0.0000313845        0.0000016291
  C        -0.0000245508        0.0000164527        0.0001046379
  H         0.0000477584       -0.0000168386       -0.0000350210
  H        -0.0000098874       -0.0000096788        0.0000103113
  H         0.0000289393       -0.0000185904       -0.0000429213
  N        -0.0002531395       -0.0000453537        0.0000409254
  C         0.0000935220        0.0000705694       -0.0000676401
  H        -0.0000360859       -0.0000145176        0.0000126400
  C        -0.0000511219        0.0000150193        0.0000468338
  H        -0.0000353650       -0.0000234324        0.0000150489
  H         0.0000072394        0.0000126025       -0.0000236478
  H        -0.0000225060        0.0000343529        0.0000038533
  N        -0.0000424033       -0.0001331996       -0.0001442571
  H        -0.0000180848        0.0000056528        0.0000068635
  C         0.0002654374        0.0000053100       -0.0000399215
  C        -0.0002292363        0.0000829958        0.0001671954
  C         0.0000861809       -0.0001904711       -0.0003299223
  H        -0.0000122165       -0.0000102668       -0.0000169928
  H         0.0000228693       -0.0000277062        0.0000188666
  H        -0.0000986039        0.0000201654       -0.0000018898
  C         0.0000166568        0.0000348011       -0.0002230614
  H        -0.0000329067       -0.0000307876        0.0000152132
  H         0.0000281642       -0.0000718582        0.0000724156
  H         0.0000065861        0.0000245302        0.0000558338
  N        -0.0001778170        0.0002863801        0.0002486596
  C        -0.0001859100        0.0001241728        0.0000508538
  H         0.0000435288        0.0000137972       -0.0000195858
  C        -0.0000032720       -0.0001082768        0.0000836166
  H        -0.0000380547        0.0000508757       -0.0000521555
  H        -0.0000201620        0.0000160504       -0.0000603819
  H        -0.0000033290        0.0000381257        0.0000495689
  N         0.0001296995       -0.0001304241       -0.0001137340
  H         0.0000197808        0.0000141512        0.0000351324
  C        -0.0000926426        0.0000341486       -0.0000309841
  C        -0.0000305876        0.0000013461       -0.0000136864
  C         0.0000014350       -0.0000336763        0.0000170909
  H        -0.0000092033        0.0000103163        0.0000366675
  H        -0.0000117611       -0.0000017688        0.0000144368
  H        -0.0000234262       -0.0000176794       -0.0000059400
  C         0.0000478574        0.0000382398        0.0000491241
  H        -0.0000220740        0.0000443969       -0.0000113818
  H         0.0000014565       -0.0000116163       -0.0000199988
  H        -0.0000690992        0.0000210118       -0.0000570231
  N        -0.0000043173        0.0001128373        0.0000619151
  C        -0.0000524125        0.0000203965       -0.0000168280
  H        -0.0000088809        0.0000285259       -0.0000249453
  C        -0.0000204183       -0.0000240670        0.0000543604
  H        -0.0000209188        0.0000063635       -0.0000088532
  H        -0.0000155019        0.0000045087       -0.0000318537
  H         0.0000008485        0.0000156321       -0.0000101300
  N         0.0000384881       -0.0000885714       -0.0000523396
  H        -0.0000265029        0.0000096182        0.0000021020
  C         0.0000075935        0.0000072411        0.0000242135
  C        -0.0000625863        0.0000411274        0.0000272229
  C         0.0000138371       -0.0000138450        0.0000003150
  H         0.0000309655        0.0000085676       -0.0000410760
  H        -0.0000282238       -0.0000062499        0.0000133255
  H        -0.0000313004       -0.0000003701        0.0000331820
  C         0.0000140099        0.0000224800       -0.0000149317
  H         0.0000003854        0.0000102410        0.0000038759
  H         0.0000179339        0.0000099121       -0.0000066119
  H        -0.0000136889        0.0000110388       -0.0000058997
  N         0.0000083963       -0.0000021692        0.0000296385
  C        -0.0000324430        0.0000262070        0.0000081413
  H        -0.0000437676        0.0000007646       -0.0000046857
  C        -0.0000002616       -0.0000114937       -0.0000041330
  H        -0.0000113870       -0.0000203677        0.0000101018
  H         0.0000078911       -0.0000108972        0.0000102915
  H         0.0000404488        0.0000037880        0.0000232024
  N         0.0000532735       -0.0000525316       -0.0000317090
  H        -0.0000176489        0.0000041497        0.0000132667
  C        -0.0000066736       -0.0000277675        0.0000865003
  C        -0.0000097288       -0.0000315086        0.0000511008
  C         0.0000374626        0.0000496572        0.0000182874
  H        -0.0000065905       -0.0000114635       -0.0000312601
  H         0.0000187826       -0.0000120049       -0.0000058617
  H         0.0000169910       -0.0000267876       -0.0000130101
  C         0.0000097174        0.0000244240        0.0000000322
  H         0.0000505522       -0.0000264377        0.0000081234
  H         0.0000154017       -0.0000337355        0.0000298715
  H         0.0000045903       -0.0000254204        0.0000026178
  N         0.0000475116       -0.0000415409       -0.0000115637
  C        -0.0000211997       -0.0000156636       -0.0000405555
  H         0.0000255110       -0.0000187832        0.0000389755
  C         0.0000146306        0.0000173074        0.0000199417
  H        -0.0000037454       -0.0000131628        0.0000334103
  H        -0.0000069736        0.0000040853        0.0000026171
  H         0.0000167643       -0.0000266573        0.0000041289
  N         0.0000180905       -0.0000033756       -0.0000630988
  H        -0.0000019802       -0.0000004407        0.0000097641
  C        -0.0000245186        0.0000406508       -0.0000180345
  C         0.0000130501        0.0000572303       -0.0000159443
  C         0.0000104646        0.0000028539        0.0000085262
  H         0.0000118478       -0.0000298231       -0.0000016815
  H         0.0000112660        0.0000375919       -0.0000096913
  H         0.0000163665       -0.0000011279        0.0000200632
  C         0.0000074574       -0.0000089261        0.0000080952
  H         0.0000172495        0.0000209443       -0.0000021321
  H         0.0000038318        0.0000135231       -0.0000368058
  H         0.0000321024       -0.0000185698       -0.0000175838
  N         0.0000075673       -0.0000206309       -0.0000374732
  C         0.0000291018        0.0000360994       -0.0000290786
  H         0.0000265173        0.0000214933        0.0000053232
  C         0.0000237037       -0.0000024126       -0.0000236150
  H         0.0000005892        0.0000055008       -0.0000187316
  H         0.0000200591        0.0000071036        0.0000043688
  H         0.0000236875       -0.0000099176        0.0000107204
  N        -0.0000077097       -0.0000332623       -0.0000352532
  H        -0.0000015856       -0.0000316231       -0.0000087139
  C         0.0000047917       -0.0000134428       -0.0000110317
  C         0.0000019066        0.0000088405        0.0000416489
  C         0.0000560135        0.0000011542        0.0000145867
  H         0.0000184218        0.0000110302        0.0000154993
  H         0.0000069198       -0.0000047209        0.0000120178
  H        -0.0000047155        0.0000325798        0.0000325370
  C        -0.0000344449       -0.0000190121       -0.0000314267
  H         0.0000029550        0.0000340317        0.0000181059
  H         0.0000134997        0.0000202921        0.0000180312
  H        -0.0000195406        0.0000098099        0.0000217213
  N         0.0000062338        0.0000825519       -0.0000183908
  C        -0.0000052654       -0.0000113724        0.0000228277
  H         0.0000153368        0.0000347415       -0.0000226653
  C         0.0000447040        0.0000278584        0.0000166743
  H        -0.0000163170        0.0000042663        0.0000275085
  H        -0.0000066785       -0.0000176597        0.0000053107
  H        -0.0000065761       -0.0000187811        0.0000068395
  N        -0.0000291257       -0.0000197002        0.0000131957
  H         0.0000140662        0.0000008054       -0.0000033684
  C         0.0000620489        0.0000623441       -0.0001383088
  C         0.0000669949       -0.0000433710        0.0000324355
  C        -0.0000171134        0.0001196514        0.0000906537
  H         0.0000003905       -0.0000220362       -0.0000114225
  H        -0.0000137903       -0.0000181754        0.0000161303
  H         0.0000332632        0.0000219339       -0.0000151033
  C        -0.0000612989       -0.0000022563       -0.0000458828
  H         0.0000365769       -0.0000152272        0.0000197057
  H         0.0000295419        0.0000181561        0.0000017178
  H        -0.0000083146       -0.0000223162        0.0000092807
  N        -0.0000421090       -0.0001778691        0.0000445288
  C         0.0000585778       -0.0001034712        0.0000169379
  H        -0.0000309410        0.0000434577       -0.0000178185
  C         0.0000482589       -0.0000205862        0.0000718983
  H        -0.0000204315       -0.0000079456        0.0000306452
  H        -0.0000188543       -0.0000261685       -0.0000014669
  H        -0.0000172724       -0.0000281429        0.0000250754
  N        -0.0000206810        0.0000124462        0.0000047843
  H        -0.0000067014       -0.0000063412       -0.0000042704
  C        -0.0000190258       -0.0000595436        0.0000485286
  C         0.0000917734        0.0000529799        0.0001129547
  C         0.0002815287        0.0000584362       -0.0001872441
  H        -0.0000200945       -0.0000005800       -0.0000140009
  H        -0.0000318298        0.0000171218       -0.0000200381
  H        -0.0000393434        0.0000265956        0.0000545702
  C        -0.0001319148       -0.0000066157       -0.0001753660
  H         0.0000604244        0.0000232248        0.0000415643
  H         0.0000348659       -0.0000366521        0.0000334365
  H         0.0000100919        0.0000035253       -0.0000335508
  N        -0.0001702949       -0.0000750668       -0.0000105467
  C        -0.0000522752       -0.0000509009        0.0002130897
  H         0.0000178274       -0.0000520706       -0.0000216083
  C         0.0000887267        0.0000494601        0.0000079565
  H        -0.0000419084        0.0000030672       -0.0000544619
  H         0.0000023991       -0.0000453330        0.0000124955
  H        -0.0000173035        0.0000192794        0.0000199426
  N        -0.0001571095        0.0000851876       -0.0000737089
  H         0.0000328788        0.0000198708       -0.0000487024
  C         0.0000757606        0.0000158677       -0.0000566655
  C         0.0000378770       -0.0000465081        0.0000340098
  C        -0.0000158504        0.0000427242       -0.0000257019
  H        -0.0000239063       -0.0000038338        0.0000206807
  H         0.0000061373        0.0000208414       -0.0000106739
  H         0.0000138835        0.0000026395        0.0000369635
  C        -0.0000092363        0.0000075883        0.0000045096
  H         0.0000210103       -0.0000010041       -0.0000105286
  H         0.0000340374        0.0000152095        0.0000157507
  H         0.0000146486       -0.0000113752        0.0000055270
  N         0.0000138184       -0.0001004098        0.0000183066
  C        -0.0000036320       -0.0000295593        0.0000477113
  H         0.0000034461        0.0000006702        0.0000145563
  C         0.0000370830       -0.0000188279       -0.0000349474
  H        -0.0000232576       -0.0000249166        0.0000394429
  H         0.0000025523        0.0000095933       -0.0000001562
  H         0.0000073022       -0.0000246282       -0.0000013780
  N        -0.0000655134        0.0000658943        0.0000063999
  H         0.0000011603       -0.0000061849       -0.0000358102
  C         0.0001038688       -0.0000434289       -0.0000226558
  C        -0.0000636941        0.0001181336       -0.0000475450
  C        -0.0001294777       -0.0000755461       -0.0000219361
  H         0.0000069740       -0.0000108755       -0.0000680214
  H         0.0000335198        0.0000368126       -0.0000182870
  H        -0.0000432772       -0.0000081907        0.0000685990
  C         0.0000005314       -0.0001024509       -0.0000448990
  H        -0.0000019650        0.0000694691        0.0000334586
  H        -0.0000387687       -0.0000563322        0.0000809348
  H         0.0000322588        0.0000275370       -0.0000635065
  N         0.0001333219        0.0000061463        0.0000243766
  C        -0.0000140693        0.0000766060       -0.0000557706
  H        -0.0000206896        0.0000084712       -0.0000016263
  C         0.0000016798       -0.0000654160       -0.0001122471
  H        -0.0000127423       -0.0000120223       -0.0000049296
  H        -0.0000254181       -0.0000031094        0.0000088958
  H        -0.0000007409        0.0000157428        0.0000259278
  N         0.0000917156        0.0000716456        0.0000548910
  H        -0.0000396522       -0.0000507317        0.0000178252
  C         0.0000147894       -0.0000527163        0.0000240726
  C         0.0000323634        0.0000351756       -0.0000102111
  C         0.0000059769        0.0000143885       -0.0000536193
  H         0.0000064876       -0.0000027962       -0.0000085073
  H         0.0000090137        0.0000064194        0.0000033494
  H         0.0000148394        0.0000066906       -0.0000274561
  C        -0.0000107437       -0.0000272308        0.0000100251
  H         0.0000090783        0.0000214239       -0.0000103437
  H         0.0000100343       -0.0000266239       -0.0000336047
  H        -0.0000256356       -0.0000051035       -0.0000265863
  N         0.0000134122        0.0000717926       -0.0000050374
  C         0.0000331976        0.0000238478        0.0000160977
  H         0.0000317129       -0.0000098688       -0.0000039648
  C         0.0000104942        0.0000288360       -0.0000196407
  H         0.0000168101       -0.0000181647        0.0000157365
  H        -0.0000009488       -0.0000071953        0.0000360109
  H         0.0000234390       -0.0000285406        0.0000087352
  N        -0.0000796601        0.0000188770       -0.0000139586
  H         0.0000211874        0.0000306903        0.0000092106
  C         0.0000124005       -0.0000369919       -0.0000143883
  C         0.0001455358        0.0000329184       -0.0000394004
  C        -0.0000444744       -0.0000012852       -0.0000219456
  H         0.0000254819        0.0000056476       -0.0000330497
  H         0.0000548439        0.0000338096       -0.0000033000
  H         0.0000115970       -0.0000056883        0.0000450260
  C        -0.0000109097       -0.0000342689        0.0000079785
  H         0.0000366588        0.0000358145        0.0000393368
  H        -0.0000130488        0.0000073733        0.0000149693
  H         0.0000480003       -0.0000595954       -0.0000233135
  N         0.0000589060       -0.0000118628        0.0001113048
  C         0.0001319216        0.0000590647        0.0000784794
  H         0.0000306676       -0.0000096089        0.0000521460
  C         0.0000197603        0.0000562162       -0.0000584249
  H         0.0000766557        0.0000466811        0.0000210246
  H         0.0000402826        0.0000566991        0.0000250427
  H         0.0000810993        0.0000540888       -0.0000013155
  N        -0.0000175119        0.0000224086        0.0000516469
  H         0.0000431252        0.0000109944        0.0000120776
  C        -0.0000161709        0.0000621222        0.0000003060
  C        -0.0000082479        0.0000034909       -0.0000431717
  C        -0.0000200204       -0.0000134811       -0.0000533983
  H        -0.0000213869       -0.0000323952       -0.0000073822