    1020
 i =        0, time =        0.000, E =    -65166.0380298189
  C         0.6684769651       20.5303954135        5.4291853545
  C         1.0459202969       20.6543242424        3.2364527073
  C         1.6865695284       21.7101861227        3.8337410788
  H         0.3458049396       20.1693685576        6.3948673923
  H         0.9805794131       20.3582409464        2.1983073443
  H         2.2870355557       22.5119169054        3.4300802449
  C         1.9312853516       22.5461565266        6.2391908651
  H         1.8424710528       23.5729385813        5.8672209871
  H         1.3321031147       22.4232825490        7.1453155946
  H         2.9710936190       22.3017006595        6.4731598293
  N         1.4289889258       21.6210515509        5.2016627410
  C        -0.4790779151       18.7560757729        4.0535102809
  H        -0.5817105597       18.2766251563        5.0317866480
  C        -1.8398207546       19.1949528457        3.4925417198
  H        -2.4518649156       18.3033813675        3.3264600381
  H        -2.3521255627       19.8545818298        4.2026824328
  H        -1.7366974196       19.7153243196        2.5330726792
  N         0.4147318941       19.9340691847        4.2489889149
  H         0.0410522066       18.0596272883        3.3868786543
  C        13.6742626653        1.8709872171       10.0025867508
  C        12.5107978434        0.7025935594        8.4937626355
  C        12.1434748881        2.0192932263        8.3849229853
  H        14.3397340892        2.1375630946       10.8152128565
  H        12.1599239197       -0.1761501917        7.9663978732
  H        11.4643462470        2.5203908738        7.7077487810
  C        12.7650968922        4.1901482327        9.5807482241
  H        13.3736417492        4.4455014257       10.4509256939
  H        13.1116031137        4.7243650965        8.6911446730
  H        11.7195194592        4.4288672937        9.7985945502
  N        12.8749247476        2.7306755589        9.3356165554
  C        14.1742386395       -0.6114372500        9.9312400980
  H        13.4102296112       -1.3945749874       10.0033640723
  C        15.2971102546       -0.9921009285        8.9497436184
  H        14.8973484849       -1.1700588699        7.9426110491
  H        16.0612565891       -0.2065539794        8.8898627385
  H        15.7790913012       -1.9187908616        9.2878293387
  N        13.4650824652        0.6293544564        9.5085265694
  H        14.5649410808       -0.4257930531       10.9391081738
  C         1.0792894504        9.0953237766        8.5368233858
  C         2.6050753605        7.5816067905        7.9336432391
  C         3.0952901221        8.8213745257        7.6114622247
  H         0.1948339607        9.5647085338        8.9636029312
  H         3.0423574918        6.5963932952        7.8439356358
  H         4.0280187921        9.1274050676        7.1541461658
  C         2.2431985338       11.2222214445        7.8583436236
  H         2.3366175292       11.4785607773        6.7964453883
  H         1.3432573206       11.6831453771        8.2760914663
  H         3.1325396341       11.5568187563        8.3988643945
  N         2.1271427298        9.7512448148        7.9948272313
  C         0.4023519229        6.6882509786        8.8930678809
  H        -0.3650916787        7.1507029453        9.5227441790
  C        -0.2195142796        6.0070789162        7.6625247150
  H        -0.9438427732        5.2517183115        7.9899563717
  H        -0.7595284064        6.7375110718        7.0468387666
  H         0.5468940100        5.5150928722        7.0480959554
  N         1.3454682561        7.7712644912        8.4998272682
  H         0.9693108286        5.9798444110        9.5071037754
  C         6.3563569107        3.5312475178        7.2868438578
  C         7.3927033555        3.0453802102        9.1989186535
  C         6.4494840279        2.0754956234        8.9701722624
  H         6.0833037717        4.0254635371        6.3658588078
  H         8.0856581376        3.1740824026       10.0174400200
  H         6.1474733891        1.2231149232        9.5624148910
  C         4.6646965745        1.6800191590        7.1787746018
  H         4.6147285917        0.6763272260        7.6114979044
  H         3.7529502429        2.2260721446        7.4369389612
  H         4.7848842572        1.6210732007        6.0904981124
  N         5.8225068262        2.3887119955        7.7660127904
  C         8.1728648752        5.1559896384        7.9417463513
  H         7.8172551532        5.6321772924        7.0208021541
  C         8.1131084444        6.1206670035        9.1356417170
  H         8.7464846697        6.9917926646        8.9244634413
  H         7.0877457063        6.4686497899        9.3165411372
  H         8.4903935742        5.6493301379       10.0531794030
  N         7.3150408470        3.9475030545        8.1375380988
  H         9.1930232626        4.8020847754        7.7506739676
  C        13.8344169627       14.1114184687       21.0224159376
  C        13.4321066348       15.5839743433       19.3900274844
  C        12.4734305417       14.6099967749       19.3286905708
  H        14.2921108138       13.6282295785       21.8736452514
  H        13.5771078068       16.4568856736       18.7710244760
  H        11.6593701897       14.4618721817       18.6409515959
  C        11.9490598095       12.4723984279       20.5988728904
  H        10.9733284000       12.7593819041       21.0008571924
  H        11.8374194561       11.9251817346       19.6558253342
  H        12.4702731009       11.8560800977       21.3334663544
  N        12.7443147836       13.6955386605       20.3410678333
  C        15.5198286142       15.9902779997       20.8246478933
  H        15.5125814495       16.1187866312       21.9125230926
  C        16.7719630798       15.2315505071       20.3545757956
  H        16.7351767982       15.0426177811       19.2732367734
  H        17.6691845763       15.8282360137       20.5602985225
  H        16.8733946868       14.2760774712       20.8843862378
  N        14.2712227169       15.2609010997       20.4552421015
  H        15.4473609403       16.9770971913       20.3560948108
  C        10.5208052051       13.4543978849       12.0269333850
  C        12.0742679264       13.7540780136       10.4540772516
  C        11.1835227726       12.8219492918        9.9873318470
  H         9.9690623803       13.5433423552       12.9531951560
  H        12.9568505395       14.1759644359        9.9901966699
  H        11.1628278131       12.2723322287        9.0550071794
  C         9.0759245855       11.7079251071       10.9105915543
  H         8.5319158552       11.7355621791       11.8586207382
  H         8.4096497879       12.0091904548       10.0948223143
  H         9.4518087160       10.6962291857       10.7208208193
  N        10.2207160436       12.6449581978       10.9845163511
  C        12.3195601836       15.1480644462       12.5875835172
  H        13.3291639487       14.7687865011       12.7876597699
  C        12.3308775509       16.5300929962       11.9228042699
  H        12.8682227472       16.5178242626       10.9664978534
  H        11.3077682105       16.8838745073       11.7424474130
  H        12.8285288230       17.2384462059       12.5928501192
  N        11.6458261037       14.1339570095       11.7244839011
  H        11.7884589184       15.1541651654       13.5422965271
  C         5.2260304033       16.4790194232       10.8763321616
  C         5.3573166820       14.7124665644        9.5169242633
  C         4.5451583435       14.3728922552       10.5690983412
  H         5.3831508741       17.4519065846       11.3226293039
  H         5.6525837609       14.1546483648        8.6386273557
  H         4.0348508146       13.4472158243       10.8012147488
  C         3.7927244710       15.5295294373       12.7150439342
  H         4.5059530059       15.2734231349       13.5048703850
  H         3.3896662300       16.5320500198       12.8828727686
  H         2.9849471593       14.7924444949       12.7129685044
  N         4.4717003041       15.4884523030       11.4035492289
  C         6.7346481518       16.7772431612        8.8772011887
  H         6.6356514984       17.8304687228        9.1475570350
  C         8.1674925709       16.2546451410        9.0747276700
  H         8.8657208998       16.8670853397        8.4899091569
  H         8.4602698460       16.3082316198       10.1328884318
  H         8.2537584823       15.2173149989        8.7248440379
  N         5.7700847334       16.0285343556        9.7283438410
  H         6.3988169914       16.6591238379        7.8436558302
  C        21.4206503856        1.2360275745       11.5493808545
  C        20.6133325569       -0.8389865318       11.6805393976
  C        19.9604674376       -0.1989330278       10.6595494007
  H        21.9970669749        2.1243875233       11.7675093444
  H        20.5359282471       -1.8537943638       12.0457771130
  H        19.2269697929       -0.5443099171        9.9463396736
  C        20.0093101717        2.1274002225        9.6379120404
  H        20.6556499100        3.0040573448        9.7125328245
  H        20.0568038222        1.7147939949        8.6247504517
  H        18.9797112081        2.4000311556        9.8929646784
  N        20.4753347084        1.0939234668       10.5929970276
  C        22.4533698181       -0.1920720625       13.3562292876
  H        21.8463428881       -0.4543133566       14.2330685376
  C        23.4555884455       -1.3021273381       13.0109233731
  H        24.1683586476       -1.4103526327       13.8387421772
  H        22.9591283128       -2.2701451726       12.8801738225
  H        24.0174185781       -1.0458713856       12.1057713098
  N        21.5187559645        0.0719127295       12.2244038329
  H        22.9600490082        0.7535226544       13.5584643733
  C         6.9965042022       22.7099256784       13.0596283834
  C         5.4039956598       22.4325496888       11.5173513843
  C         6.5091957211       21.7295247973       11.1133749279
  H         7.5345722496       23.0784802893       13.9247523996
  H         4.4418782612       22.5682380761       11.0412418979
  H         6.6596405908       21.1054019179       10.2461799345
  C         8.8571908290       21.3416568998       12.0608397496
  H         9.3809148562       21.6379941569       12.9720461743
  H         8.7875871685       20.2504446056       12.0162672626
  H         9.4051082914       21.7161952912       11.1895283381
  N         7.4925580384       21.9141783110       12.0888063651
  C         4.7701714802       23.7563175550       13.6100961922
  H         4.1099554189       24.3269242908       12.9510411276
  C         3.9821580102       22.7709230174       14.4892806089
  H         3.4572400125       22.0317450669       13.8711593832
  H         4.6519683149       22.2330924598       15.1694723724
  H         3.2543074074       23.3282700357       15.0891739411
  N         5.7284500585       23.0340787844       12.7330715484
  H         5.3464046841       24.4674584997       14.2108342213
  C        16.0793075292        1.1420028957        0.9941024864
  C        15.1787100443       -0.8128106759        0.4153332032
  C        15.2288956306       -0.7586449796        1.7841182042
  H        16.5390080198        2.1171795101        0.9189657338
  H        14.7701243979       -1.5568955904       -0.2510299369
  H        14.8966552555       -1.4658576801        2.5274360027
  C        16.1401486824        0.8843921776        3.5035436668
  H        16.2564066206        1.9717150344        3.5407764586
  H        15.3248143900        0.5982254388        4.1769443618
  H        17.0697287843        0.3855562188        3.8027670242
  N        15.7843827829        0.4712213866        2.1286782244
  C        15.8063065352        0.7764175435       -1.4936397370
  H        16.0250124442       -0.1389262254       -2.0520721506
  C        14.5092364283        1.4478123287       -1.9696678389
  H        14.6373533416        1.7669977403       -3.0109335588
  H        13.6635981000        0.7537844286       -1.9054789666
  H        14.3053567803        2.3448768473       -1.3716725879
  N        15.7156807789        0.3805044687       -0.0585147758
  H        16.6657626774        1.4460630743       -1.5880114718
  C        16.8810115772        7.2229244446       11.9933904140
  C        19.0315510238        6.6837553602       12.1911998323
  C        18.5019304013        5.9304893088       11.1769537901
  H        15.9173302583        7.6779273773       12.1528766202
  H        20.0412466601        6.7524834281       12.5666093144
  H        18.9513535576        5.2210723072       10.4975330704
  C        16.1814242152        5.6245606998       10.1745848192
  H        16.0552203211        4.5879255158       10.5058821919
  H        15.2344598986        6.1618666024       10.2393931146
  H        16.5661047123        5.6444247339        9.1503973416
  N        17.1572591710        6.2775074995       11.0728225447
  C        18.1068387673        8.4031212378       13.8592043472
  H        17.2865609546        9.1265236548       13.7756934166
  C        18.0408695871        7.6294673343       15.1870426849
  H        18.8719395183        6.9157660907       15.2733876691
  H        18.1130672955        8.3492590548       16.0123001893
  H        17.1008266240        7.0681333161       15.2685703018
  N        18.0063367783        7.4886591138       12.6860192343
  H        19.0412176340        8.9636523448       13.7489543591
  C        21.7728800842       16.9234983354       20.3690047853
  C        21.9956021099       15.3224010347       21.9104882192
  C        22.9609037247       15.1318455220       20.9568555597
  H        21.4117974276       17.7799684444       19.8131726751
  H        21.7739188394       14.7778133519       22.8200180987
  H        23.7273216076       14.3774398775       20.8590228970
  C        23.5901655207       16.2451305640       18.7552748035
  H        24.6522619773       16.2825501393       19.0116349432
  H        23.3660461580       15.3665292965       18.1426413320
  H        23.2854937448       17.1446643966       18.2155853837
  N        22.8080325540       16.1368795407       20.0062198968
  C        20.0715652811       16.9830509415       22.2422762491
  H        19.3882121055       16.1375123602       22.3865893171
  C        20.4401106224       17.6483977136       23.5748941695
  H        21.1318230777       18.4814702607       23.4078048028
  H        19.5324779588       18.0643068251       24.0297795671
  H        20.8862101726       16.9324383576       24.2776842987
  N        21.2606576738       16.4425947185       21.5236230940
  H        19.6008348208       17.7049267865       21.5683303974
  C         3.1223805497       11.5880052362        1.5239393989
  C         4.8767743030       10.6544063299        2.5426851104
  C         5.1758106082       11.9729215543        2.3189126914
  H         2.1606789787       11.7117049596        1.0448364373
  H         5.4250937557        9.8922841061        3.0802778083
  H         6.0612540250       12.5428665392        2.5565947713
  C         3.9479050730       13.9667850585        1.3040342664
  H         2.8904231020       14.2434249044        1.2789938639
  H         4.4667737075       14.5676956209        2.0586261155
  H         4.4056853158       14.1269273421        0.3215760409
  N         4.0679585777       12.5407208610        1.6926885307
  C         2.8428246650        9.1440610691        2.1086605580
  H         3.5874894191        8.3412867623        2.0559428750
  C         2.0036364060        9.0550216936        3.3949360738
  H         1.2266405186        9.8312220957        3.4196907723
  H         1.5155908588        8.0723785206        3.4290111266
  H         2.6412953561        9.1508469087        4.2845343371
  N         3.5971340823       10.4289118123        2.0296807275
  H         2.2219903484        9.0889463163        1.2083500411
  C        16.9217050313       14.2764792464       12.3662005170
  C        18.7648302584       14.1576850058       13.6176915119
  C        18.7037398062       13.0253283833       12.8450181448
  H        16.0228240762       14.6443168414       11.8943354129
  H        19.4994786456       14.4772088386       14.3433194425
  H        19.3636181559       12.1737434770       12.7737088166
  C        17.0591615781       12.1159267507       11.1003647704
  H        17.9233682029       11.6055971896       10.6691836141
  H        16.4073832171       11.4089562870       11.6243767749
  H        16.4935192332       12.6269921710       10.3135279890
  N        17.5540209157       13.1261580237       12.0620270895
  C        17.3132504113       16.2707606987       13.8548017792
  H        17.6628715680       16.2788528709       14.8925514681
  C        17.9564868636       17.3979458459       13.0293303821
  H        17.6156989011       17.3513322667       11.9856866082
  H        17.6551895796       18.3636740742       13.4548321029
  H        19.0514190446       17.3262830561       13.0634628293
  N        17.6398252740       14.9246583452       13.3069393248
  H        16.2204980845       16.3596565375       13.8764632272
  C         9.3080209610       14.9963070620        3.9729979474
  C        10.4282057176       15.1967780333        5.8949922498
  C         9.9511776193       16.4369390372        5.5585135929
  H         8.8708231344       14.5898192479        3.0693431776
  H        11.0376970897       14.8617989713        6.7224462770
  H        10.0810426890       17.3994440193        6.0352276461
  C         8.5933483356       17.3697797915        3.5919861718
  H         9.2699645550       18.2305200408        3.5514056588
  H         8.3926034843       17.0104111533        2.5777998541
  H         7.6529029137       17.6347624713        4.0894206211
  N         9.2622442683       16.2901941301        4.3510525313
  C        10.4656613418       12.8976033173        4.7536628552
  H         9.6422712001       12.3527530634        4.2761703305
  C        11.7680008899       12.8085979632        3.9357881838
  H        12.1402630385       11.7751844074        3.9421694788
  H        11.6069283808       13.1113736383        2.8927091617
  H        12.5489245738       13.4460559713        4.3695429844
  N        10.0196512788       14.3125857943        4.8944774737
  H        10.6048721938       12.5035967333        5.7658321386
  C        20.3792404405        5.0970229834        1.9346359018
  C        22.2403037531        4.7614294227        3.1199041307
  C        21.3378773934        3.7852862376        3.4635719023
  H        19.6586081260        5.5018763547        1.2313075267
  H        23.2581646429        4.9300549068        3.4424424528
  H        21.3954837594        2.9765332188        4.1771491215
  C        18.9438630573        3.2030939003        2.7543671669
  H        19.1730130072        2.1648092390        2.4892063162
  H        18.5200290491        3.2617554065        3.7616014787
  H        18.2423369787        3.6253928527        2.0277404898
  N        20.1852838982        4.0109625663        2.7117606673
  C        22.1823534750        6.8160697835        1.5543162391
  H        21.9018095177        6.8249418640        0.4946308795
  C        21.6856350407        8.0773901999        2.2777797598
  H        21.9724561794        8.0731611229        3.3369781400
  H        22.1260791766        8.9665534946        1.8113306839
  H        20.5923688929        8.1692921433        2.2197220818
  N        21.6246239640        5.5683202321        2.1623585784
  H        23.2705996684        6.7216820087        1.6063810406
  C        15.7054234193       17.6224001905        4.4749937127
  C        16.8077020108       19.1078711171        3.2191310660
  C        15.6004088863       18.8539118961        2.6152327817
  H        15.4562419407       16.9081112038        5.2499673489
  H        17.6264907635       19.7521090620        2.9218817161
  H        15.1518306298       19.2407358897        1.7106353345
  C        13.5643119600       17.4137756021        3.1693085739
  H        13.4743563040       16.4367540134        3.6495695539
  H        12.8250001789       18.1180254661        3.5690636957
  H        13.4310644084       17.3124948857        2.0900443436
  N        14.9286302214       17.9311573057        3.4153774016
  C        17.9900007178       18.2641171588        5.3407490005
  H        17.5642439931       18.2995856401        6.3486927013
  C        18.8301101162       16.9944216694        5.1505488458
  H        18.2353967124       16.0989546876        5.3628537220
  H        19.2333391444       16.9143750838        4.1353843540
  H        19.6761708265       17.0247445908        5.8493629101
  N        16.8498584325       18.3352341065        4.3797866310
  H        18.5800467075       19.1729702996        5.1955246121
  C         8.5011806749        8.9893011465        1.4763614745
  C         8.3545496233        7.9119484952        3.4258158554
  C         7.2877789092        7.5292663405        2.6537470188
  H         8.8547578665        9.6193572560        0.6750996626
  H         8.6677664381        7.5837274837        4.4062267483
  H         6.4914050855        6.8242887260        2.8432361181
  C         6.4550754304        8.1449296113        0.3083409332
  H         5.8680174185        7.2277797867        0.3984407469
  H         5.7900381685        9.0143984457        0.3470997114
  H         7.0214061704        8.1466302069       -0.6271038464
  N         7.4006002343        8.2112035921        1.4410329343
  C        10.3753549110        9.4557825301        3.0933599932
  H        10.2564332078        9.7572171894        4.1409177635
  C        11.5477869913        8.4800648449        2.9154192770
  H        11.3931807714        7.5599585108        3.4919027748
  H        11.6721934181        8.2210198061        1.8569273588
  H        12.4707959187        8.9561675253        3.2677020085
  N         9.0914398450        8.8308525486        2.6790248064
  H        10.4927999402       10.3627646847        2.4889178001
  C        12.7588354505        7.4578131511       15.3028176989
  C        11.0486991980        6.1182977941       15.7981514816
  C        11.5071559963        6.6628173856       16.9701619304
  H        13.5195130402        7.9924506621       14.7543582086
  H        10.2593744450        5.4105234417       15.6059295307
  H        11.1695103848        6.5522179404       17.9923114232
  C        13.4013586009        8.2583040584       17.6000073828
  H        13.7375985971        9.1812145969       17.1197083551
  H        12.7738546292        8.5044671824       18.4595325994
  H        14.2561575065        7.6423859669       17.9053845624
  N        12.5724159245        7.4984081392       16.6384559449
  C        11.6731275500        6.3250320098       13.3169987256
  H        11.5808233993        5.2373476396       13.2224168659
  C        10.4471315589        7.0417045295       12.7313109035
  H         9.5168892581        6.6338464926       13.1493488716
  H        10.4939768322        8.1202900404       12.9341177690
  H        10.4385781345        6.9037649095       11.6433350704
  N        11.8437112275        6.6207838128       14.7697540801
  H        12.5957880652        6.6362733011       12.8203616349
  C        21.5161179929       14.9728012357        7.2326246739
  C        21.2944089522       16.1745527169        9.0966281119
  C        20.1035135625       15.5357516597        8.8655843542
  H        21.9092838761       14.5026717047        6.3404578351
  H        21.5900981846       16.8662924749        9.8720264535
  H        19.1647030677       15.5535941827        9.4024163437
  C        19.2539057873       13.8820756501        7.1183129613
  H        19.4502882358       13.7790269436        6.0491003608
  H        19.3330979769       12.9079915210        7.6124219432
  H        18.2677196321       14.3227309403        7.2745145907
  N        20.2606456692       14.7973580503        7.6963785821
  C        23.5786631558       16.2593865530        7.9441099725
  H        23.5728807638       17.3536074269        8.0129059834
  C        24.4732857954       15.6148396720        9.0172413499
  H        24.1762991429       15.9360401937       10.0249141776
  H        24.4069262526       14.5212289962        8.9692585583
  H        25.5115348747       15.9234135495        8.8442790043
  N        22.1608362277       15.8168604823        8.0650256380
  H        23.9132493410       16.0019860376        6.9341735459
  C         8.3851163424       16.1496392272       19.3257780314
  C         9.9205087754       17.4605418538       18.3765880161
  C         9.8825135956       16.2816238702       17.6749822894
  H         7.6120727719       15.7927386390       19.9934481856
  H        10.5538419178       18.3278949758       18.2528240584
  H        10.4374726598       15.9462936806       16.8091462571
  C         8.5652367436       14.0964687762       17.8827584762
  H         8.1630117419       14.1198153298       16.8646331361
  H         9.4556934114       13.4609745215       17.9158327442
  H         7.8281850267       13.7050447165       18.5892261674
  N         8.9214633533       15.4739858832       18.2877588588
  C         8.6501700151       18.4068776480       20.4169175582
  H         9.5537806322       18.5807197067       21.0112923262
  C         8.1497825623       19.7031057061       19.7646814925
  H         8.9348762055       20.1545330859       19.1473008465
  H         7.2574635233       19.5199427973       19.1559007169
  H         7.8953433553       20.4288895659       20.5455264116
  N         8.9735142734       17.3608662433       19.3984382711
  H         7.8979247885       17.9603683670       21.0773178923
  C        18.8545841172       -0.1260721360       17.4246664277
  C        17.8554157800        1.8076267685       16.9441888261
  C        19.1131314516        2.0879869073       17.4165367232
  H        19.0328665921       -1.1770734059       17.5940358554
  H        17.0647843839        2.4544213299       16.5932222402
  H        19.6315290555        3.0270655980       17.5535423841
  C        21.0533176568        0.6813084665       18.3252138337
  H        21.7482222681        1.4056031776       17.8933510114
  H        20.9672945613        0.8336528344       19.4084095118
  H        21.3973426311       -0.3335260488       18.1054414341
  N        19.7202456620        0.8667062934       17.7104059176
  C        16.4826740219       -0.3478331561       16.6027168733
  H        16.8016750223       -1.2826061992       16.1271982258
  C        15.6214306429       -0.6129653369       17.8501619431
  H        16.1790442996       -1.1910025755       18.5988824769
  H        15.2971994171        0.3318857500       18.3071164133
  H        14.7300522393       -1.1831653336       17.5629075160
  N        17.7152687743        0.4201250459       16.9519238999
  H        15.9529954869        0.2339953166       15.8416609769
  C         3.8556017582        5.1969007488       20.3828260084
  C         4.2583144007        4.2311559095       22.3555156759
  C         5.4326849636        4.7802678634       21.9067096333
  H         3.3360570383        5.5503678753       19.5006481256
  H         4.0434919399        3.6783349118       23.2598317282
  H         6.4245821433        4.7802537064       22.3363839213
  C         6.1636692780        5.9626528385       19.7669225026
  H         6.9281519069        6.4718873732       20.3598485249
  H         6.6101450698        5.1574665883       19.1737233943
  H         5.6666782849        6.6909511644       19.1235986263
  N         5.1599339624        5.3800050824       20.6794190091
  C         1.8537249770        4.1135535088       21.4351711123
  H         1.7986253237        3.2225569900       22.0677056021
  C         0.9727908748        5.2518641630       21.9748964487
  H         1.2652575962        5.5159310679       22.9994247901
  H         1.0381534711        6.1437440304       21.3383306616
  H        -0.0755094190        4.9218945705       21.9809747634
  N         3.2898532070        4.5022853772       21.3907786391
  H         1.5749680126        3.8211326105       20.4193818771
  C        14.8180382589        7.1838185469        4.7776150206
  C        15.9709240027        8.4827730049        3.3689338879
  C        16.3054143333        8.8441629093        4.6484918836
  H        14.1403826919        6.4311090630        5.1624080968
  H        16.2976232139        8.8852916276        2.4179881631
  H        16.9804095173        9.6077670926        5.0092143788
  C        15.5718289100        8.1152826898        6.9925452400
  H        14.9982321301        8.9942694867        7.3031715192
  H        15.1137688149        7.2074586847        7.3909291480
  H        16.6026811613        8.1802876582        7.3525962101
  N        15.5802693962        8.0218059741        5.5126508362
  C        14.4412880247        6.6965431875        2.3288439743
  H        14.2303105602        7.4344932509        1.5442035915
  C        15.3791758315        5.5863540899        1.8329828270
  H        14.9270637785        5.0801702213        0.9702016282
  H        16.3436374694        5.9955011323        1.5077896902
  H        15.5543893772        4.8521471049        2.6298819808
  N        15.0355671680        7.4512359709        3.4706361332
  H        13.4896856139        6.2871485668        2.6844182353
  C        18.1738046118       10.8974702624       20.5523600391
  C        17.3495794927        8.8680378841       20.1241500035
  C        18.2080614439        8.7565119574       21.1873686742
  H        18.3865296901       11.9565350271       20.4979360087