 DBCSR| CPU Multiplication driver                                           XSMM
 DBCSR| Multrec recursion limit                                              512
 DBCSR| Multiplication stack size                                           1000
 DBCSR| Maximum elements for images                                    UNLIMITED
 DBCSR| Multiplicative factor virtual images                                   1
 DBCSR| Use multiplication densification                                       T
 DBCSR| Multiplication size stacks                                             3
 DBCSR| Use memory pool for CPU allocation                                     F
 DBCSR| Number of 3D layers                                               SINGLE
 DBCSR| Use MPI memory allocation                                              F
 DBCSR| Use RMA algorithm                                                      F
 DBCSR| Use Communication thread                                               T
 DBCSR| Communication thread load                                             87
 DBCSR| MPI: My node id                                                        0
 DBCSR| MPI: Number of nodes                                                 120
 DBCSR| OMP: Current number of threads                                         1
 DBCSR| OMP: Max number of threads                                             1
 DBCSR| Split modifier for TAS multiplication algorithm                  1.0E+00


  **** **** ******  **  PROGRAM STARTED AT               2023-04-27 11:54:09.638
 ***** ** ***  *** **   PROGRAM STARTED ON          c307-024.ls6.tacc.utexas.edu
 **    ****   ******    PROGRAM STARTED BY                              holiaei2
 ***** **    ** ** **   PROGRAM PROCESS ID                               2168364
  **** **  *******  **  PROGRAM STARTED IN /work/07118/holiaei2/ls6/IL_proj/emim
                                           _tfsi/AIMD/bulk_30_pairs/4_MD_test/ou
                                           tput_files

 CP2K| version string:                                       CP2K version 2022.1
 CP2K| source code revision number:                                  git:2caeb6f
 CP2K| cp2kflags: omp libint fftw3 libxc parallel mpi3 scalapack cosma xsmm mkl 
 CP2K|            libvori libbqb
 CP2K| is freely available from                            https://www.cp2k.org/
 CP2K| Program compiled at                          Fri Apr 21 16:58:47 CDT 2023
 CP2K| Program compiled on                          c306-006.ls6.tacc.utexas.edu
 CP2K| Program compiled for                                                local
 CP2K| Data directory path        /work/07118/holiaei2/ls6/CP2K/cp2k-2022.1/data
 CP2K| Input file name                                               ../input.in

 GLOBAL| Force Environment number                                              1
 GLOBAL| Basis set file name                                     EMSL_BASIS_SETS
 GLOBAL| Potential file name                                           POTENTIAL
 GLOBAL| MM Potential file name                                     MM_POTENTIAL
 GLOBAL| Coordinate file name                              ../input_files/IL.xyz
 GLOBAL| Method name                                                        CP2K
 GLOBAL| Project name                                                         IL
 GLOBAL| Run type                                                             MD
 GLOBAL| FFT library                                                       FFTW3
 GLOBAL| Diagonalization library                                       ScaLAPACK
 GLOBAL| Orthonormality check for eigenvectors                          DISABLED
 GLOBAL| Matrix multiplication library                                     COSMA
 GLOBAL| All-to-all communication in single precision                          F
 GLOBAL| FFTs using library dependent lengths                                  F
 GLOBAL| Grid backend                                                       AUTO
 GLOBAL| Global print level                                               MEDIUM
 GLOBAL| MPI I/O enabled                                                       T
 GLOBAL| Total number of message passing processes                           120
 GLOBAL| Number of threads for this process                                    1
 GLOBAL| This output is from process                                           0
 GLOBAL| Stack size for threads created by OpenMP (OMP_STACKSIZE)        default
 GLOBAL| CPU model name                          AMD EPYC 7763 64-Core Processor
 GLOBAL| CPUID                                                              1002

 MEMORY| system memory details [Kb]
 MEMORY|                        rank 0           min           max       average
 MEMORY| MemTotal            263307196     263307196     263307196     263307196
 MEMORY| MemFree             241302800     241302800     241306328     241305370
 MEMORY| Buffers                     0             0             0             0
 MEMORY| Cached                2252300       2252300       2252300       2252300
 MEMORY| Slab                  4135004       4135004       4135004       4135004
 MEMORY| SReclaimable          2128692       2128692       2128692       2128692
 MEMORY| MemLikelyFree       245683792     245683792     245687320     245686362


 *** Fundamental physical constants (SI units) ***

 *** Literature: B. J. Mohr and B. N. Taylor,
 ***             CODATA recommended values of the fundamental physical
 ***             constants: 2006, Web Version 5.1
 ***             http://physics.nist.gov/constants

 Speed of light in vacuum [m/s]                             2.99792458000000E+08
 Magnetic constant or permeability of vacuum [N/A**2]       1.25663706143592E-06
 Electric constant or permittivity of vacuum [F/m]          8.85418781762039E-12
 Planck constant (h) [J*s]                                  6.62606896000000E-34
 Planck constant (h-bar) [J*s]                              1.05457162825177E-34
 Elementary charge [C]                                      1.60217648700000E-19
 Electron mass [kg]                                         9.10938215000000E-31
 Electron g factor [ ]                                     -2.00231930436220E+00
 Proton mass [kg]                                           1.67262163700000E-27
 Fine-structure constant                                    7.29735253760000E-03
 Rydberg constant [1/m]                                     1.09737315685270E+07
 Avogadro constant [1/mol]                                  6.02214179000000E+23
 Boltzmann constant [J/K]                                   1.38065040000000E-23
 Atomic mass unit [kg]                                      1.66053878200000E-27
 Bohr radius [m]                                            5.29177208590000E-11

 *** Conversion factors ***

 [u] -> [a.u.]                                              1.82288848426455E+03
 [Angstrom] -> [Bohr] = [a.u.]                              1.88972613288564E+00
 [a.u.] = [Bohr] -> [Angstrom]                              5.29177208590000E-01
 [a.u.] -> [s]                                              2.41888432650478E-17
 [a.u.] -> [fs]                                             2.41888432650478E-02
 [a.u.] -> [J]                                              4.35974393937059E-18
 [a.u.] -> [N]                                              8.23872205491840E-08
 [a.u.] -> [K]                                              3.15774647902944E+05
 [a.u.] -> [kJ/mol]                                         2.62549961709828E+03
 [a.u.] -> [kcal/mol]                                       6.27509468713739E+02
 [a.u.] -> [Pa]                                             2.94210107994716E+13
 [a.u.] -> [bar]                                            2.94210107994716E+08
 [a.u.] -> [atm]                                            2.90362800883016E+08
 [a.u.] -> [eV]                                             2.72113838565563E+01
 [a.u.] -> [Hz]                                             6.57968392072181E+15
 [a.u.] -> [1/cm] (wave numbers)                            2.19474631370540E+05
 [a.u./Bohr**2] -> [1/cm]                                   5.14048714338585E+03
 

 CELL_TOP| Volume [angstrom^3]:                                     12495.081799
 CELL_TOP| Vector a [angstrom    23.205     0.000     0.000   |a| =    23.204900
 CELL_TOP| Vector b [angstrom     0.000    23.205     0.000   |b| =    23.204900
 CELL_TOP| Vector c [angstrom     0.000     0.000    23.205   |c| =    23.204900
 CELL_TOP| Angle (b,c), alpha [degree]:                                90.000000
 CELL_TOP| Angle (a,c), beta  [degree]:                                90.000000
 CELL_TOP| Angle (a,b), gamma [degree]:                                90.000000
 CELL_TOP| Numerically orthorhombic:                                         YES

 GENERATE|  Preliminary Number of Bonds generated:                             0
 GENERATE|  Achieved consistency in connectivity generation.

 CELL| Volume [angstrom^3]:                                         12495.081799
 CELL| Vector a [angstrom]:      23.205     0.000     0.000   |a| =    23.204900
 CELL| Vector b [angstrom]:       0.000    23.205     0.000   |b| =    23.204900
 CELL| Vector c [angstrom]:       0.000     0.000    23.205   |c| =    23.204900
 CELL| Angle (b,c), alpha [degree]:                                    90.000000
 CELL| Angle (a,c), beta  [degree]:                                    90.000000
 CELL| Angle (a,b), gamma [degree]:                                    90.000000
 CELL| Numerically orthorhombic:                                             YES

 CELL_REF| Volume [angstrom^3]:                                     12495.081799
 CELL_REF| Vector a [angstrom    23.205     0.000     0.000   |a| =    23.204900
 CELL_REF| Vector b [angstrom     0.000    23.205     0.000   |b| =    23.204900
 CELL_REF| Vector c [angstrom     0.000     0.000    23.205   |c| =    23.204900
 CELL_REF| Angle (b,c), alpha [degree]:                                90.000000
 CELL_REF| Angle (a,c), beta  [degree]:                                90.000000
 CELL_REF| Angle (a,b), gamma [degree]:                                90.000000
 CELL_REF| Numerically orthorhombic:                                         YES

 *******************************************************************************
 *******************************************************************************
 **                                                                           **
 **     #####                         ##              ##                      **
 **    ##   ##            ##          ##              ##                      **
 **   ##     ##                       ##            ######                    **
 **   ##     ##  ##   ##  ##   #####  ##  ##   ####   ##    #####    #####    **
 **   ##     ##  ##   ##  ##  ##      ## ##   ##      ##   ##   ##  ##   ##   **
 **   ##  ## ##  ##   ##  ##  ##      ####     ###    ##   ######   ######    **
 **    ##  ###   ##   ##  ##  ##      ## ##      ##   ##   ##       ##        **
 **     #######   #####   ##   #####  ##  ##  ####    ##    #####   ##        **
 **           ##                                                    ##        **
 **                                                                           **
 **                                                ... make the atoms dance   **
 **                                                                           **
 **            Copyright (C) by CP2K developers group (2000-2022)             **
 **                      J. Chem. Phys. 152, 194103 (2020)                    **
 **                                                                           **
 *******************************************************************************

 DFT| Spin restricted Kohn-Sham (RKS) calculation                            RKS
 DFT| Multiplicity                                                             1
 DFT| Number of spin states                                                    1
 DFT| Charge                                                                   0
 DFT| Self-interaction correction (SIC)                                       NO
 DFT| Cutoffs: density                                              1.000000E-10
 DFT|          gradient                                             1.000000E-10
 DFT|          tau                                                  1.000000E-10
 DFT|          cutoff_smoothing_range                               0.000000E+00
 DFT| XC density smoothing                                                  NONE
 DFT| XC derivatives                                                          PW

 FUNCTIONAL| BECKE88:
 FUNCTIONAL| A. Becke, Phys. Rev. A 38, 3098 (1988) {LDA version}               
 FUNCTIONAL| LYP:
 FUNCTIONAL| C. Lee, W. Yang, R.G. Parr, Phys. Rev. B, 37, 785 (1988) {LDA versi
 FUNCTIONAL| on}                                                                

 vdW POTENTIAL|                                                   Pair Potential
 vdW POTENTIAL|          DFT-D3 (Version 3.1)
 vdW POTENTIAL|          Potential Form: S. Grimme et al, JCP 132: 154104 (2010)
 vdW POTENTIAL|          Zero Damping
 vdW POTENTIAL|          Cutoff Radius [Bohr]:                             20.00
 vdW POTENTIAL|          s6 Scaling Factor:                               1.0000
 vdW POTENTIAL|          sr6 Scaling Factor:                              1.0940
 vdW POTENTIAL|          s8 Scaling Factor:                               1.6820
 vdW POTENTIAL|          Cutoff for CN calculation:                   0.1000E-05

 QS| Method:                                                                GAPW
 QS| Density plane wave grid type                        NON-SPHERICAL FULLSPACE
 QS| Number of grid levels:                                                    5
 QS| Density cutoff [a.u.]:                                                200.0
 QS| Multi grid cutoff [a.u.]: 1) grid level                               200.0
 QS|                           2) grid level                                66.7
 QS|                           3) grid level                                22.2
 QS|                           4) grid level                                 7.4
 QS|                           5) grid level                                 2.5
 QS| Grid level progression factor:                                          3.0
 QS| Relative density cutoff [a.u.]:                                        20.0
 QS| Interaction thresholds: eps_pgf_orb:                                1.0E-07
 QS|                         eps_filter_matrix:                          0.0E+00
 QS|                         eps_core_charge:                            1.0E-14
 QS|                         eps_rho_gspace:                             1.0E-12
 QS|                         eps_rho_rspace:                             1.0E-12
 QS|                         eps_gvg_rspace:                             1.0E-06
 QS|                         eps_ppl:                                    1.0E-02
 QS|                         eps_ppnl:                                   1.0E-08
 QS| GAPW|                   eps_fit:                                    1.0E-04
 QS| GAPW|                   eps_iso:                                    1.0E-12
 QS| GAPW|                   eps_svd:                                    1.0E-08
 QS| GAPW|                   eps_cpc:                                    1.0E-12
 QS| GAPW|   atom-r-grid: quadrature:                                     GC_LOG
 QS| GAPW|      atom-s-grid:  max l :                                          4
 QS| GAPW|      max_l_rho0 :                                                   2


 ATOMIC KIND INFORMATION

  1. Atomic kind: C                                     Number of atoms:     240

     Orbital Basis Set                                                  6-311Gxx

       Number of orbital shell sets:                                           5
       Number of orbital shells:                                               8
       Number of primitive Cartesian functions:                               12
       Number of Cartesian basis functions:                                   19
       Number of spherical basis functions:                                   18
       Norm type:                                                              2

       Normalised Cartesian orbitals:

                        Set   Shell   Orbital            Exponent    Coefficient

                          1       1    1s             4563.240000       0.778202
                                                       682.024000       1.448695
                                                       154.973000       2.383089
                                                        44.455300       3.200089
                                                        13.029000       3.013004
                                                         1.827730       0.247599

                          2       1    1s               20.964200       0.800629
                                                         4.803310       2.127420
                                                         1.459330      -0.002868

                          2       2    2px              20.964200       2.573592
                                                         4.803310       2.408248
                                                         1.459330       1.865281
                          2       2    2py              20.964200       2.573592
                                                         4.803310       2.408248
                                                         1.459330       1.865281
                          2       2    2pz              20.964200       2.573592
                                                         4.803310       2.408248
                                                         1.459330       1.865281

                          3       1    1s                0.483456       0.413217

                          3       2    2px               0.483456       0.574627
                          3       2    2py               0.483456       0.574627
                          3       2    2pz               0.483456       0.574627

                          4       1    1s                0.145585       0.167976

                          4       2    2px               0.145585       0.128185
                          4       2    2py               0.145585       0.128185
                          4       2    2pz               0.145585       0.128185

                          5       1    1dx2              0.626000       0.725128
                          5       1    1dxy              0.626000       1.255958
                          5       1    1dxz              0.626000       1.255958
                          5       1    1dy2              0.626000       0.725128
                          5       1    1dyz              0.626000       1.255958
                          5       1    1dz2              0.626000       0.725128

       Atomic covalent radius [Angstrom]:                                  0.770

       Atomic van der Waals radius [Angstrom]:                             1.700

     The atoms of this atomic kind are PAW atoms (GAPW):
       Hard Gaussian function radius:                                      1.512
       Rho0 radius:                                                        1.512
       Maximum GTO radius used for PAW projector construction:            24.566

     GAPW Soft Basis Set                                           6-311Gxx_soft

       Number of orbital shell sets:                                           5
       Number of orbital shells:                                               8
       Number of primitive Cartesian functions:                                5
       Number of Cartesian basis functions:                                   19
       Number of spherical basis functions:                                   18
       Norm type:                                                              2

       Normalised Cartesian orbitals:

                        Set   Shell   Orbital            Exponent    Coefficient

                          1       1    1s                1.827730       0.247599

                          2       1    1s                1.459330      -0.002868

                          2       2    2px               1.459330       1.865281
                          2       2    2py               1.459330       1.865281
                          2       2    2pz               1.459330       1.865281

                          3       1    1s                0.483456       0.413217

                          3       2    2px               0.483456       0.574627
                          3       2    2py               0.483456       0.574627
                          3       2    2pz               0.483456       0.574627

                          4       1    1s                0.145585       0.167976

                          4       2    2px               0.145585       0.128185
                          4       2    2py               0.145585       0.128185
                          4       2    2pz               0.145585       0.128185

                          5       1    1dx2              0.626000       0.725128
                          5       1    1dxy              0.626000       1.255958
                          5       1    1dxz              0.626000       1.255958
                          5       1    1dy2              0.626000       0.725128
                          5       1    1dyz              0.626000       1.255958
                          5       1    1dz2              0.626000       0.725128

     AE Potential information for                                            ALL

       Description:                                       All-electron potential
                                          Krack, Parrinello, PCCP 2, 2105 (2000)

       Gaussian exponent of the core charge distribution:               4.109048
       Electronic configuration (s p d ...):                           4   2   0

  2. Atomic kind: H                                     Number of atoms:     330

     Orbital Basis Set                                                  6-311Gxx

       Number of orbital shell sets:                                           4
       Number of orbital shells:                                               4
       Number of primitive Cartesian functions:                                6
       Number of Cartesian basis functions:                                    6
       Number of spherical basis functions:                                    6
       Norm type:                                                              2

       Normalised Cartesian orbitals:

                        Set   Shell   Orbital            Exponent    Coefficient

                          1       1    1s               33.865000       0.255069
                                                         5.094790       0.460109
                                                         1.158790       0.678321

                          2       1    1s                0.325840       0.307371

                          3       1    1s                0.102741       0.129336

                          4       1    1px               0.750000       0.994871
                          4       1    1py               0.750000       0.994871
                          4       1    1pz               0.750000       0.994871

       Atomic covalent radius [Angstrom]:                                  0.320

       Atomic van der Waals radius [Angstrom]:                             1.090

     The atoms of this atomic kind are PAW atoms (GAPW):
       Hard Gaussian function radius:                                      1.200
       Rho0 radius:                                                        1.200
       Maximum GTO radius used for PAW projector construction:            24.566

     GAPW Soft Basis Set                                           6-311Gxx_soft

       Number of orbital shell sets:                                           4
       Number of orbital shells:                                               4
       Number of primitive Cartesian functions:                                5
       Number of Cartesian basis functions:                                    6
       Number of spherical basis functions:                                    6
       Norm type:                                                              2

       Normalised Cartesian orbitals:

                        Set   Shell   Orbital            Exponent    Coefficient

                          1       1    1s                5.094790       0.460109
                                                         1.158790       0.678321

                          2       1    1s                0.325840       0.307371

                          3       1    1s                0.102741       0.129336

                          4       1    1px               0.750000       0.994871
                          4       1    1py               0.750000       0.994871
                          4       1    1pz               0.750000       0.994871

     AE Potential information for                                            ALL

       Description:                                       All-electron potential
                                          Krack, Parrinello, PCCP 2, 2105 (2000)

       Gaussian exponent of the core charge distribution:              12.500000
       Electronic configuration (s p d ...):                           1   0   0

  3. Atomic kind: N                                     Number of atoms:      90

     Orbital Basis Set                                                  6-311Gxx

       Number of orbital shell sets:                                           5
       Number of orbital shells:                                               8
       Number of primitive Cartesian functions:                               12
       Number of Cartesian basis functions:                                   19
       Number of spherical basis functions:                                   18
       Norm type:                                                              2

       Normalised Cartesian orbitals:

                        Set   Shell   Orbital            Exponent    Coefficient

                          1       1    1s             6293.480000       0.991968
                                                       949.044000       1.823240
                                                       218.776000       2.979891
                                                        63.691600       4.000007
                                                        18.828200       3.881008
                                                         2.720230       0.386764

                          2       1    1s               30.633100       1.038501
                                                         7.026140       2.834794
                                                         2.112050      -0.003208

                          2       2    2px              30.633100       3.935616
                                                         7.026140       3.870994
                                                         2.112050       2.967271
                          2       2    2py              30.633100       3.935616
                                                         7.026140       3.870994
                                                         2.112050       2.967271
                          2       2    2pz              30.633100       3.935616
                                                         7.026140       3.870994
                                                         2.112050       2.967271

                          3       1    1s                0.684009       0.536051

                          3       2    2px               0.684009       0.886681
                          3       2    2py               0.684009       0.886681
                          3       2    2pz               0.684009       0.886681

                          4       1    1s                0.200878       0.213850

                          4       2    2px               0.200878       0.191693
                          4       2    2py               0.200878       0.191693
                          4       2    2pz               0.200878       0.191693

                          5       1    1dx2              0.913000       1.403568
                          5       1    1dxy              0.913000       2.431050
                          5       1    1dxz              0.913000       2.431050
                          5       1    1dy2              0.913000       1.403568
                          5       1    1dyz              0.913000       2.431050
                          5       1    1dz2              0.913000       1.403568

       Atomic covalent radius [Angstrom]:                                  0.750

       Atomic van der Waals radius [Angstrom]:                             1.550

     The atoms of this atomic kind are PAW atoms (GAPW):
       Hard Gaussian function radius:                                      1.512
       Rho0 radius:                                                        1.512
       Maximum GTO radius used for PAW projector construction:            24.566

     GAPW Soft Basis Set                                           6-311Gxx_soft

       Number of orbital shell sets:                                           5
       Number of orbital shells:                                               8
       Number of primitive Cartesian functions:                                5
       Number of Cartesian basis functions:                                   19
       Number of spherical basis functions:                                   18
       Norm type:                                                              2

       Normalised Cartesian orbitals:

                        Set   Shell   Orbital            Exponent    Coefficient

                          1       1    1s                2.720230       0.386764

                          2       1    1s                2.112050      -0.003208

                          2       2    2px               2.112050       2.967271
                          2       2    2py               2.112050       2.967271
                          2       2    2pz               2.112050       2.967271

                          3       1    1s                0.684009       0.536051

                          3       2    2px               0.684009       0.886681
                          3       2    2py               0.684009       0.886681
                          3       2    2pz               0.684009       0.886681

                          4       1    1s                0.200878       0.213850

                          4       2    2px               0.200878       0.191693
                          4       2    2py               0.200878       0.191693
                          4       2    2pz               0.200878       0.191693

                          5       1    1dx2              0.913000       1.403568
                          5       1    1dxy              0.913000       2.431050
                          5       1    1dxz              0.913000       2.431050
                          5       1    1dy2              0.913000       1.403568
                          5       1    1dyz              0.913000       2.431050
                          5       1    1dz2              0.913000       1.403568

     AE Potential information for                                            ALL

       Description:                                       All-electron potential
                                          Krack, Parrinello, PCCP 2, 2105 (2000)

       Gaussian exponent of the core charge distribution:               5.979100
       Electronic configuration (s p d ...):                           4   3   0

  4. Atomic kind: S                                     Number of atoms:      60

     Orbital Basis Set                                                  6-311Gxx

       Number of orbital shell sets:                                          11
       Number of orbital shells:                                              12
       Number of primitive Cartesian functions:                               22
       Number of Cartesian basis functions:                                   27
       Number of spherical basis functions:                                   26
       Norm type:                                                              2

       Normalised Cartesian orbitals:

                        Set   Shell   Orbital            Exponent    Coefficient

                          1       1    1s            93413.400000       2.829474
                                                     13961.700000       5.302947
                                                      3169.910000       9.018828
                                                       902.456000      13.967823
                                                       297.158000      18.793514
                                                       108.702000      13.851252
                                                        43.155300       0.000000
                                                        18.107900       0.000000

                          1       2    2s            93413.400000       0.000000
                                                     13961.700000       0.000000
                                                      3169.910000       0.000000
                                                       902.456000       0.000000
                                                       297.158000       0.000000
                                                       108.702000       3.435492
                                                        43.155300       7.493660
                                                        18.107900       1.772797

                          2       1    1s                5.560090       2.580605

                          3       1    1s                2.131830       1.257403

                          4       1    1s                0.420403       0.372100

                          5       1    1s                0.136045       0.159651

                          6       1    1px             495.040000      27.655999
                                                       117.221000      35.199768
                                                        37.774900      37.058321
                                                        14.058400      28.910837
                          6       1    1py             495.040000      27.655999
                                                       117.221000      35.199768
                                                        37.774900      37.058321
                                                        14.058400      28.910837
                          6       1    1pz             495.040000      27.655999
                                                       117.221000      35.199768
                                                        37.774900      37.058321
                                                        14.058400      28.910837

                          7       1    1px               5.565740       7.478390
                                                         2.262970       1.755874
                          7       1    1py               5.565740       7.478390
                                                         2.262970       1.755874
                          7       1    1pz               5.565740       7.478390
                                                         2.262970       1.755874

                          8       1    1px               0.807994       1.091944
                          8       1    1py               0.807994       1.091944
                          8       1    1pz               0.807994       1.091944

                          9       1    1px               0.277460       0.287039
                          9       1    1py               0.277460       0.287039
                          9       1    1pz               0.277460       0.287039

                         10       1    1px               0.077141       0.057949
                         10       1    1py               0.077141       0.057949
                         10       1    1pz               0.077141       0.057949

                         11       1    1dx2              0.650000       0.774476
                         11       1    1dxy              0.650000       1.341431
                         11       1    1dxz              0.650000       1.341431
                         11       1    1dy2              0.650000       0.774476
                         11       1    1dyz              0.650000       1.341431
                         11       1    1dz2              0.650000       0.774476

       Atomic covalent radius [Angstrom]:                                  1.020

       Atomic van der Waals radius [Angstrom]:                             1.800

     The atoms of this atomic kind are PAW atoms (GAPW):
       Hard Gaussian function radius:                                      1.512
       Rho0 radius:                                                        1.512
       Maximum GTO radius used for PAW projector construction:            24.566

     GAPW Soft Basis Set                                           6-311Gxx_soft

       Number of orbital shell sets:                                          11
       Number of orbital shells:                                              12
       Number of primitive Cartesian functions:                                8
       Number of Cartesian basis functions:                                   27
       Number of spherical basis functions:                                   26
       Norm type:                                                              2

       Normalised Cartesian orbitals:

                        Set   Shell   Orbital            Exponent    Coefficient

                          1       1    1s         

                          1       2    2s         

                          2       1    1s         

                          3       1    1s                2.131830       1.257403

                          4       1    1s                0.420403       0.372100

                          5       1    1s                0.136045       0.159651

                          6       1    1px        
                          6       1    1py        
                          6       1    1pz        

                          7       1    1px               2.262970       1.755874
                          7       1    1py               2.262970       1.755874
                          7       1    1pz               2.262970       1.755874

                          8       1    1px               0.807994       1.091944
                          8       1    1py               0.807994       1.091944
                          8       1    1pz               0.807994       1.091944

                          9       1    1px               0.277460       0.287039
                          9       1    1py               0.277460       0.287039
                          9       1    1pz               0.277460       0.287039

                         10       1    1px               0.077141       0.057949
                         10       1    1py               0.077141       0.057949
                         10       1    1pz               0.077141       0.057949

                         11       1    1dx2              0.650000       0.774476
                         11       1    1dxy              0.650000       1.341431
                         11       1    1dxz              0.650000       1.341431
                         11       1    1dy2              0.650000       0.774476
                         11       1    1dyz              0.650000       1.341431
                         11       1    1dz2              0.650000       0.774476

     AE Potential information for                                            ALL

       Description:                                       All-electron potential
                                          Krack, Parrinello, PCCP 2, 2105 (2000)

       Gaussian exponent of the core charge distribution:               2.834467
       Electronic configuration (s p d ...):                           6  10   0

  5. Atomic kind: O                                     Number of atoms:     120

     Orbital Basis Set                                                  6-311Gxx

       Number of orbital shell sets:                                           5
       Number of orbital shells:                                               8
       Number of primitive Cartesian functions:                               12
       Number of Cartesian basis functions:                                   19
       Number of spherical basis functions:                                   18
       Norm type:                                                              2

       Normalised Cartesian orbitals:

                        Set   Shell   Orbital            Exponent    Coefficient

                          1       1    1s             8588.500000       1.205013
                                                      1297.230000       2.216205
                                                       299.296000       3.627452
                                                        87.377100       4.888452
                                                        25.678900       4.835721
                                                         3.740040       0.538229

                          2       1    1s               42.117500       1.341958
                                                         9.628370       3.587114
                                                         2.853320      -0.005123

                          2       2    2px              42.117500       5.584018
                                                         9.628370       5.733366
                                                         2.853320       4.332955
                          2       2    2py              42.117500       5.584018
                                                         9.628370       5.733366
                                                         2.853320       4.332955
                          2       2    2pz              42.117500       5.584018
                                                         9.628370       5.733366
                                                         2.853320       4.332955

                          3       1    1s                0.905661       0.661659

                          3       2    2px               0.905661       1.259352
                          3       2    2py               0.905661       1.259352
                          3       2    2pz               0.905661       1.259352

                          4       1    1s                0.255611       0.256209

                          4       2    2px               0.255611       0.259068
                          4       2    2py               0.255611       0.259068
                          4       2    2pz               0.255611       0.259068

                          5       1    1dx2              1.292000       2.577026
                          5       1    1dxy              1.292000       4.463541
                          5       1    1dxz              1.292000       4.463541
                          5       1    1dy2              1.292000       2.577026
                          5       1    1dyz              1.292000       4.463541
                          5       1    1dz2              1.292000       2.577026

       Atomic covalent radius [Angstrom]:                                  0.730

       Atomic van der Waals radius [Angstrom]:                             1.520

     The atoms of this atomic kind are PAW atoms (GAPW):
       Hard Gaussian function radius:                                      1.512
       Rho0 radius:                                                        1.512
       Maximum GTO radius used for PAW projector construction:            24.566

     GAPW Soft Basis Set                                           6-311Gxx_soft

       Number of orbital shell sets:                                           5
       Number of orbital shells:                                               8
       Number of primitive Cartesian functions:                                5
       Number of Cartesian basis functions:                                   19
       Number of spherical basis functions:                                   18
       Norm type:                                                              2

       Normalised Cartesian orbitals:

                        Set   Shell   Orbital            Exponent    Coefficient

                          1       1    1s                3.740040       0.538229

                          2       1    1s                2.853320      -0.005123

                          2       2    2px               2.853320       4.332955
                          2       2    2py               2.853320       4.332955
                          2       2    2pz               2.853320       4.332955

                          3       1    1s                0.905661       0.661659

                          3       2    2px               0.905661       1.259352
                          3       2    2py               0.905661       1.259352
                          3       2    2pz               0.905661       1.259352

                          4       1    1s                0.255611       0.256209

                          4       2    2px               0.255611       0.259068
                          4       2    2py               0.255611       0.259068
                          4       2    2pz               0.255611       0.259068

                          5       1    1dx2              1.292000       2.577026
                          5       1    1dxy              1.292000       4.463541
                          5       1    1dxz              1.292000       4.463541
                          5       1    1dy2              1.292000       2.577026
                          5       1    1dyz              1.292000       4.463541
                          5       1    1dz2              1.292000       2.577026

     AE Potential information for                                            ALL

       Description:                                       All-electron potential
                                          Krack, Parrinello, PCCP 2, 2105 (2000)

       Gaussian exponent of the core charge distribution:               8.154466
       Electronic configuration (s p d ...):                           4   4   0

  6. Atomic kind: F                                     Number of atoms:     180

     Orbital Basis Set                                                  6-311Gxx

       Number of orbital shell sets:                                           5
       Number of orbital shells:                                               8
       Number of primitive Cartesian functions:                               12
       Number of Cartesian basis functions:                                   19
       Number of spherical basis functions:                                   18
       Norm type:                                                              2

       Normalised Cartesian orbitals:

                        Set   Shell   Orbital            Exponent    Coefficient

                          1       1    1s            11427.100000       1.418597
                                                      1722.350000       2.618472
                                                       395.746000       4.308564
                                                       115.139000       5.845050
                                                        33.602600       5.859607
                                                         4.919010       0.705054

                          2       1    1s               55.444100       1.658608
                                                        12.632300       4.395937
                                                         3.717560      -0.006446

                          2       2    2px              55.444100       7.647313
                                                        12.632300       8.060593
                                                         3.717560       6.036967
                          2       2    2py              55.444100       7.647313
                                                        12.632300       8.060593
                                                         3.717560       6.036967
                          2       2    2pz              55.444100       7.647313
                                                        12.632300       8.060593
                                                         3.717560       6.036967

                          3       1    1s                1.165450       0.799430

                          3       2    2px               1.165450       1.726065
                          3       2    2py               1.165450       1.726065
                          3       2    2pz               1.165450       1.726065

                          4       1    1s                0.321892       0.304574

                          4       2    2px               0.321892       0.345603
                          4       2    2py               0.321892       0.345603
                          4       2    2pz               0.321892       0.345603

                          5       1    1dx2              1.750000       4.382542
                          5       1    1dxy              1.750000       7.590785
                          5       1    1dxz              1.750000       7.590785
                          5       1    1dy2              1.750000       4.382542
                          5       1    1dyz              1.750000       7.590785
                          5       1    1dz2              1.750000       4.382542

       Atomic covalent radius [Angstrom]:                                  0.720

       Atomic van der Waals radius [Angstrom]:                             1.470

     The atoms of this atomic kind are PAW atoms (GAPW):
       Hard Gaussian function radius:                                      1.512
       Rho0 radius:                                                        1.512
       Maximum GTO radius used for PAW projector construction:            24.566

     GAPW Soft Basis Set                                           6-311Gxx_soft

       Number of orbital shell sets:                                           5
       Number of orbital shells:                                               8
       Number of primitive Cartesian functions:                                4
       Number of Cartesian basis functions:                                   19
       Number of spherical basis functions:                                   18
       Norm type:                                                              2

       Normalised Cartesian orbitals:

                        Set   Shell   Orbital            Exponent    Coefficient

                          1       1    1s         

                          2       1    1s                3.717560      -0.006446

                          2       2    2px               3.717560       6.036967
                          2       2    2py               3.717560       6.036967
                          2       2    2pz               3.717560       6.036967

                          3       1    1s                1.165450       0.799430

                          3       2    2px               1.165450       1.726065
                          3       2    2py               1.165450       1.726065
                          3       2    2pz               1.165450       1.726065

                          4       1    1s                0.321892       0.304574

                          4       2    2px               0.321892       0.345603
                          4       2    2py               0.321892       0.345603
                          4       2    2pz               0.321892       0.345603

                          5       1    1dx2              1.750000       4.382542
                          5       1    1dxy              1.750000       7.590785
                          5       1    1dxz              1.750000       7.590785
                          5       1    1dy2              1.750000       4.382542
                          5       1    1dyz              1.750000       7.590785
                          5       1    1dz2              1.750000       4.382542

     AE Potential information for                                            ALL

       Description:                                       All-electron potential
                                          Krack, Parrinello, PCCP 2, 2105 (2000)

       Gaussian exponent of the core charge distribution:              10.470541
       Electronic configuration (s p d ...):                           4   5   0


 MOLECULE KIND INFORMATION


 All atoms are their own molecule, skipping detailed information


 TOTAL NUMBERS AND MAXIMUM NUMBERS

  Total number of            - Atomic kinds:                                   6
                             - Atoms:                                       1020
                             - Shell sets:                                  5130
                             - Shells:                                      7080
                             - Primitive Cartesian functions:              10860
                             - Cartesian basis functions:                  15570
                             - Spherical basis functions:                  14880

  Maximum angular momentum of the orbital basis functions:                     2


 MODULE QUICKSTEP:  ATOMIC COORDINATES IN angstrom

 Atom  Kind  Element       X           Y           Z          Z(eff)       Mass
    1   1 C    6       0.668477   20.530395    5.429185       6.0000     12.0107
    2   1 C    6       1.045920   20.654324    3.236453       6.0000     12.0107
    3   1 C    6       1.686570   21.710186    3.833741       6.0000     12.0107
    4   2 H    1       0.345805   20.169369    6.394867       1.0000      1.0079
    5   2 H    1       0.980579   20.358241    2.198307       1.0000      1.0079
    6   2 H    1       2.287036   22.511917    3.430080       1.0000      1.0079
    7   1 C    6       1.931285   22.546157    6.239191       6.0000     12.0107
    8   2 H    1       1.842471   23.572939    5.867221       1.0000      1.0079
    9   2 H    1       1.332103   22.423283    7.145316       1.0000      1.0079
   10   2 H    1       2.971094   22.301701    6.473160       1.0000      1.0079
   11   3 N    7       1.428989   21.621052    5.201663       7.0000     14.0067
   12   1 C    6      -0.479078   18.756076    4.053510       6.0000     12.0107
   13   2 H    1      -0.581711   18.276625    5.031787       1.0000      1.0079
   14   1 C    6      -1.839821   19.194953    3.492542       6.0000     12.0107
   15   2 H    1      -2.451865   18.303381    3.326460       1.0000      1.0079
   16   2 H    1      -2.352126   19.854582    4.202682       1.0000      1.0079
   17   2 H    1      -1.736697   19.715324    2.533073       1.0000      1.0079
   18   3 N    7       0.414732   19.934069    4.248989       7.0000     14.0067
   19   2 H    1       0.041052   18.059627    3.386879       1.0000      1.0079
   20   1 C    6      13.674263    1.870987   10.002587       6.0000     12.0107
   21   1 C    6      12.510798    0.702594    8.493763       6.0000     12.0107
   22   1 C    6      12.143475    2.019293    8.384923       6.0000     12.0107
   23   2 H    1      14.339734    2.137563   10.815213       1.0000      1.0079
   24   2 H    1      12.159924   -0.176150    7.966398       1.0000      1.0079
   25   2 H    1      11.464346    2.520391    7.707749       1.0000      1.0079
   26   1 C    6      12.765097    4.190148    9.580748       6.0000     12.0107
   27   2 H    1      13.373642    4.445501   10.450926       1.0000      1.0079
   28   2 H    1      13.111603    4.724365    8.691145       1.0000      1.0079
   29   2 H    1      11.719519    4.428867    9.798595       1.0000      1.0079
   30   3 N    7      12.874925    2.730676    9.335617       7.0000     14.0067
   31   1 C    6      14.174239   -0.611437    9.931240       6.0000     12.0107
   32   2 H    1      13.410230   -1.394575   10.003364       1.0000      1.0079
   33   1 C    6      15.297110   -0.992101    8.949744       6.0000     12.0107
   34   2 H    1      14.897348   -1.170059    7.942611       1.0000      1.0079
   35   2 H    1      16.061257   -0.206554    8.889863       1.0000      1.0079
   36   2 H    1      15.779091   -1.918791    9.287829       1.0000      1.0079
   37   3 N    7      13.465082    0.629354    9.508527       7.0000     14.0067
   38   2 H    1      14.564941   -0.425793   10.939108       1.0000      1.0079
   39   1 C    6       1.079289    9.095324    8.536823       6.0000     12.0107
   40   1 C    6       2.605075    7.581607    7.933643       6.0000     12.0107
   41   1 C    6       3.095290    8.821375    7.611462       6.0000     12.0107
   42   2 H    1       0.194834    9.564709    8.963603       1.0000      1.0079
   43   2 H    1       3.042357    6.596393    7.843936       1.0000      1.0079
   44   2 H    1       4.028019    9.127405    7.154146       1.0000      1.0079
   45   1 C    6       2.243199   11.222221    7.858344       6.0000     12.0107
   46   2 H    1       2.336618   11.478561    6.796445       1.0000      1.0079
   47   2 H    1       1.343257   11.683145    8.276091       1.0000      1.0079
   48   2 H    1       3.132540   11.556819    8.398864       1.0000      1.0079
   49   3 N    7       2.127143    9.751245    7.994827       7.0000     14.0067
   50   1 C    6       0.402352    6.688251    8.893068       6.0000     12.0107
   51   2 H    1      -0.365092    7.150703    9.522744       1.0000      1.0079
   52   1 C    6      -0.219514    6.007079    7.662525       6.0000     12.0107
   53   2 H    1      -0.943843    5.251718    7.989956       1.0000      1.0079
   54   2 H    1      -0.759528    6.737511    7.046839       1.0000      1.0079
   55   2 H    1       0.546894    5.515093    7.048096       1.0000      1.0079
   56   3 N    7       1.345468    7.771264    8.499827       7.0000     14.0067
   57   2 H    1       0.969311    5.979844    9.507104       1.0000      1.0079
   58   1 C    6       6.356357    3.531248    7.286844       6.0000     12.0107
   59   1 C    6       7.392703    3.045380    9.198919       6.0000     12.0107
   60   1 C    6       6.449484    2.075496    8.970172       6.0000     12.0107
   61   2 H    1       6.083304    4.025464    6.365859       1.0000      1.0079
   62   2 H    1       8.085658    3.174082   10.017440       1.0000      1.0079
   63   2 H    1       6.147473    1.223115    9.562415       1.0000      1.0079
   64   1 C    6       4.664697    1.680019    7.178775       6.0000     12.0107
   65   2 H    1       4.614729    0.676327    7.611498       1.0000      1.0079
   66   2 H    1       3.752950    2.226072    7.436939       1.0000      1.0079
   67   2 H    1       4.784884    1.621073    6.090498       1.0000      1.0079
   68   3 N    7       5.822507    2.388712    7.766013       7.0000     14.0067
   69   1 C    6       8.172865    5.155990    7.941746       6.0000     12.0107
   70   2 H    1       7.817255    5.632177    7.020802       1.0000      1.0079
   71   1 C    6       8.113108    6.120667    9.135642       6.0000     12.0107
   72   2 H    1       8.746485    6.991793    8.924463       1.0000      1.0079
   73   2 H    1       7.087746    6.468650    9.316541       1.0000      1.0079
   74   2 H    1       8.490394    5.649330   10.053179       1.0000      1.0079
   75   3 N    7       7.315041    3.947503    8.137538       7.0000     14.0067
   76   2 H    1       9.193023    4.802085    7.750674       1.0000      1.0079
   77   1 C    6      13.834417   14.111418   21.022416       6.0000     12.0107
   78   1 C    6      13.432107   15.583974   19.390027       6.0000     12.0107
   79   1 C    6      12.473431   14.609997   19.328691       6.0000     12.0107
   80   2 H    1      14.292111   13.628230   21.873645       1.0000      1.0079
   81   2 H    1      13.577108   16.456886   18.771024       1.0000      1.0079
   82   2 H    1      11.659370   14.461872   18.640952       1.0000      1.0079
   83   1 C    6      11.949060   12.472398   20.598873       6.0000     12.0107
   84   2 H    1      10.973328   12.759382   21.000857       1.0000      1.0079
   85   2 H    1      11.837419   11.925182   19.655825       1.0000      1.0079
   86   2 H    1      12.470273   11.856080   21.333466       1.0000      1.0079
   87   3 N    7      12.744315   13.695539   20.341068       7.0000     14.0067
   88   1 C    6      15.519829   15.990278   20.824648       6.0000     12.0107
   89   2 H    1      15.512581   16.118787   21.912523       1.0000      1.0079
   90   1 C    6      16.771963   15.231551   20.354576       6.0000     12.0107
   91   2 H    1      16.735177   15.042618   19.273237       1.0000      1.0079
   92   2 H    1      17.669185   15.828236   20.560299       1.0000      1.0079
   93   2 H    1      16.873395   14.276077   20.884386       1.0000      1.0079
   94   3 N    7      14.271223   15.260901   20.455242       7.0000     14.0067
   95   2 H    1      15.447361   16.977097   20.356095       1.0000      1.0079
   96   1 C    6      10.520805   13.454398   12.026933       6.0000     12.0107
   97   1 C    6      12.074268   13.754078   10.454077       6.0000     12.0107
   98   1 C    6      11.183523   12.821949    9.987332       6.0000     12.0107
   99   2 H    1       9.969062   13.543342   12.953195       1.0000      1.0079
  100   2 H    1      12.956851   14.175964    9.990197       1.0000      1.0079
  101   2 H    1      11.162828   12.272332    9.055007       1.0000      1.0079
  102   1 C    6       9.075925   11.707925   10.910592       6.0000     12.0107
  103   2 H    1       8.531916   11.735562   11.858621       1.0000      1.0079
  104   2 H    1       8.409650   12.009190   10.094822       1.0000      1.0079
  105   2 H    1       9.451809   10.696229   10.720821       1.0000      1.0079
  106   3 N    7      10.220716   12.644958   10.984516       7.0000     14.0067
  107   1 C    6      12.319560   15.148064   12.587584       6.0000     12.0107
  108   2 H    1      13.329164   14.768787   12.787660       1.0000      1.0079
  109   1 C    6      12.330878   16.530093   11.922804       6.0000     12.0107
  110   2 H    1      12.868223   16.517824   10.966498       1.0000      1.0079
  111   2 H    1      11.307768   16.883875   11.742447       1.0000      1.0079
  112   2 H    1      12.828529   17.238446   12.592850       1.0000      1.0079
  113   3 N    7      11.645826   14.133957   11.724484       7.0000     14.0067
  114   2 H    1      11.788459   15.154165   13.542297       1.0000      1.0079
  115   1 C    6       5.226030   16.479019   10.876332       6.0000     12.0107
  116   1 C    6       5.357317   14.712467    9.516924       6.0000     12.0107
  117   1 C    6       4.545158   14.372892   10.569098       6.0000     12.0107
  118   2 H    1       5.383151   17.451907   11.322629       1.0000      1.0079
  119   2 H    1       5.652584   14.154648    8.638627       1.0000      1.0079
  120   2 H    1       4.034851   13.447216   10.801215       1.0000      1.0079
  121   1 C    6       3.792724   15.529529   12.715044       6.0000     12.0107
  122   2 H    1       4.505953   15.273423   13.504870       1.0000      1.0079
  123   2 H    1       3.389666   16.532050   12.882873       1.0000      1.0079
  124   2 H    1       2.984947   14.792444   12.712969       1.0000      1.0079
  125   3 N    7       4.471700   15.488452   11.403549       7.0000     14.0067
  126   1 C    6       6.734648   16.777243    8.877201       6.0000     12.0107
  127   2 H    1       6.635651   17.830469    9.147557       1.0000      1.0079
  128   1 C    6       8.167493   16.254645    9.074728       6.0000     12.0107
  129   2 H    1       8.865721   16.867085    8.489909       1.0000      1.0079
  130   2 H    1       8.460270   16.308232   10.132888       1.0000      1.0079
  131   2 H    1       8.253758   15.217315    8.724844       1.0000      1.0079
  132   3 N    7       5.770085   16.028534    9.728344       7.0000     14.0067
  133   2 H    1       6.398817   16.659124    7.843656       1.0000      1.0079
  134   1 C    6      21.420650    1.236028   11.549381       6.0000     12.0107
  135   1 C    6      20.613333   -0.838987   11.680539       6.0000     12.0107
  136   1 C    6      19.960467   -0.198933   10.659549       6.0000     12.0107
  137   2 H    1      21.997067    2.124388   11.767509       1.0000      1.0079
  138   2 H    1      20.535928   -1.853794   12.045777       1.0000      1.0079
  139   2 H    1      19.226970   -0.544310    9.946340       1.0000      1.0079
  140   1 C    6      20.009310    2.127400    9.637912       6.0000     12.0107
  141   2 H    1      20.655650    3.004057    9.712533       1.0000      1.0079
  142   2 H    1      20.056804    1.714794    8.624750       1.0000      1.0079
  143   2 H    1      18.979711    2.400031    9.892965       1.0000      1.0079
  144   3 N    7      20.475335    1.093923   10.592997       7.0000     14.0067
  145   1 C    6      22.453370   -0.192072   13.356229       6.0000     12.0107
  146   2 H    1      21.846343   -0.454313   14.233069       1.0000      1.0079
  147   1 C    6      23.455588   -1.302127   13.010923       6.0000     12.0107
  148   2 H    1      24.168359   -1.410353   13.838742       1.0000      1.0079
  149   2 H    1      22.959128   -2.270145   12.880174       1.0000      1.0079
  150   2 H    1      24.017419   -1.045871   12.105771       1.0000      1.0079
  151   3 N    7      21.518756    0.071913   12.224404       7.0000     14.0067
  152   2 H    1      22.960049    0.753523   13.558464       1.0000      1.0079
  153   1 C    6       6.996504   22.709926   13.059628       6.0000     12.0107
  154   1 C    6       5.403996   22.432550   11.517351       6.0000     12.0107
  155   1 C    6       6.509196   21.729525   11.113375       6.0000     12.0107
  156   2 H    1       7.534572   23.078480   13.924752       1.0000      1.0079
  157   2 H    1       4.441878   22.568238   11.041242       1.0000      1.0079
  158   2 H    1       6.659641   21.105402   10.246180       1.0000      1.0079
  159   1 C    6       8.857191   21.341657   12.060840       6.0000     12.0107
  160   2 H    1       9.380915   21.637994   12.972046       1.0000      1.0079
  161   2 H    1       8.787587   20.250445   12.016267       1.0000      1.0079
  162   2 H    1       9.405108   21.716195   11.189528       1.0000      1.0079
  163   3 N    7       7.492558   21.914178   12.088806       7.0000     14.0067
  164   1 C    6       4.770171   23.756318   13.610096       6.0000     12.0107
  165   2 H    1       4.109955   24.326924   12.951041       1.0000      1.0079
  166   1 C    6       3.982158   22.770923   14.489281       6.0000     12.0107
  167   2 H    1       3.457240   22.031745   13.871159       1.0000      1.0079
  168   2 H    1       4.651968   22.233092   15.169472       1.0000      1.0079
  169   2 H    1       3.254307   23.328270   15.089174       1.0000      1.0079
  170   3 N    7       5.728450   23.034079   12.733072       7.0000     14.0067
  171   2 H    1       5.346405   24.467458   14.210834       1.0000      1.0079
  172   1 C    6      16.079308    1.142003    0.994102       6.0000     12.0107
  173   1 C    6      15.178710   -0.812811    0.415333       6.0000     12.0107
  174   1 C    6      15.228896   -0.758645    1.784118       6.0000     12.0107
  175   2 H    1      16.539008    2.117180    0.918966       1.0000      1.0079
  176   2 H    1      14.770124   -1.556896   -0.251030       1.0000      1.0079
  177   2 H    1      14.896655   -1.465858    2.527436       1.0000      1.0079
  178   1 C    6      16.140149    0.884392    3.503544       6.0000     12.0107
  179   2 H    1      16.256407    1.971715    3.540776       1.0000      1.0079
  180   2 H    1      15.324814    0.598225    4.176944       1.0000      1.0079
  181   2 H    1      17.069729    0.385556    3.802767       1.0000      1.0079
  182   3 N    7      15.784383    0.471221    2.128678       7.0000     14.0067
  183   1 C    6      15.806307    0.776418   -1.493640       6.0000     12.0107
  184   2 H    1      16.025012   -0.138926   -2.052072       1.0000      1.0079
  185   1 C    6      14.509236    1.447812   -1.969668       6.0000     12.0107
  186   2 H    1      14.637353    1.766998   -3.010934       1.0000      1.0079
  187   2 H    1      13.663598    0.753784   -1.905479       1.0000      1.0079
  188   2 H    1      14.305357    2.344877   -1.371673       1.0000      1.0079
  189   3 N    7      15.715681    0.380504   -0.058515       7.0000     14.0067
  190   2 H    1      16.665763    1.446063   -1.588011       1.0000      1.0079
  191   1 C    6      16.881012    7.222924   11.993390       6.0000     12.0107
  192   1 C    6      19.031551    6.683755   12.191200       6.0000     12.0107
  193   1 C    6      18.501930    5.930489   11.176954       6.0000     12.0107
  194   2 H    1      15.917330    7.677927   12.152877       1.0000      1.0079
  195   2 H    1      20.041247    6.752483   12.566609       1.0000      1.0079
  196   2 H    1      18.951354    5.221072   10.497533       1.0000      1.0079
  197   1 C    6      16.181424    5.624561   10.174585       6.0000     12.0107
  198   2 H    1      16.055220    4.587926   10.505882       1.0000      1.0079
  199   2 H    1      15.234460    6.161867   10.239393       1.0000      1.0079
  200   2 H    1      16.566105    5.644425    9.150397       1.0000      1.0079
  201   3 N    7      17.157259    6.277507   11.072823       7.0000     14.0067
  202   1 C    6      18.106839    8.403121   13.859204       6.0000     12.0107
  203   2 H    1      17.286561    9.126524   13.775693       1.0000      1.0079
  204   1 C    6      18.040870    7.629467   15.187043       6.0000     12.0107
  205   2 H    1      18.871940    6.915766   15.273388       1.0000      1.0079
  206   2 H    1      18.113067    8.349259   16.012300       1.0000      1.0079
  207   2 H    1      17.100827    7.068133   15.268570       1.0000      1.0079
  208   3 N    7      18.006337    7.488659   12.686019       7.0000     14.0067
  209   2 H    1      19.041218    8.963652   13.748954       1.0000      1.0079
  210   1 C    6      21.772880   16.923498   20.369005       6.0000     12.0107
  211   1 C    6      21.995602   15.322401   21.910488       6.0000     12.0107
  212   1 C    6      22.960904   15.131846   20.956856       6.0000     12.0107
  213   2 H    1      21.411797   17.779968   19.813173       1.0000      1.0079
  214   2 H    1      21.773919   14.777813   22.820018       1.0000      1.0079
  215   2 H    1      23.727322   14.377440   20.859023       1.0000      1.0079
  216   1 C    6      23.590166   16.245131   18.755275       6.0000     12.0107
  217   2 H    1      24.652262   16.282550   19.011635       1.0000      1.0079
  218   2 H    1      23.366046   15.366529   18.142641       1.0000      1.0079
  219   2 H    1      23.285494   17.144664   18.215585       1.0000      1.0079
  220   3 N    7      22.808033   16.136880   20.006220       7.0000     14.0067
  221   1 C    6      20.071565   16.983051   22.242276       6.0000     12.0107
  222   2 H    1      19.388212   16.137512   22.386589       1.0000      1.0079
  223   1 C    6      20.440111   17.648398   23.574894       6.0000     12.0107
  224   2 H    1      21.131823   18.481470   23.407805       1.0000      1.0079
  225   2 H    1      19.532478   18.064307   24.029780       1.0000      1.0079
  226   2 H    1      20.886210   16.932438   24.277684       1.0000      1.0079
  227   3 N    7      21.260658   16.442595   21.523623       7.0000     14.0067
  228   2 H    1      19.600835   17.704927   21.568330       1.0000      1.0079
  229   1 C    6       3.122381   11.588005    1.523939       6.0000     12.0107
  230   1 C    6       4.876774   10.654406    2.542685       6.0000     12.0107
  231   1 C    6       5.175811   11.972922    2.318913       6.0000     12.0107
  232   2 H    1       2.160679   11.711705    1.044836       1.0000      1.0079
  233   2 H    1       5.425094    9.892284    3.080278       1.0000      1.0079
  234   2 H    1       6.061254   12.542867    2.556595       1.0000      1.0079
  235   1 C    6       3.947905   13.966785    1.304034       6.0000     12.0107
  236   2 H    1       2.890423   14.243425    1.278994       1.0000      1.0079
  237   2 H    1       4.466774   14.567696    2.058626       1.0000      1.0079
  238   2 H    1       4.405685   14.126927    0.321576       1.0000      1.0079
  239   3 N    7       4.067959   12.540721    1.692689       7.0000     14.0067
  240   1 C    6       2.842825    9.144061    2.108661       6.0000     12.0107
  241   2 H    1       3.587489    8.341287    2.055943       1.0000      1.0079
  242   1 C    6       2.003636    9.055022    3.394936       6.0000     12.0107
  243   2 H    1       1.226641    9.831222    3.419691       1.0000      1.0079
  244   2 H    1       1.515591    8.072379    3.429011       1.0000      1.0079
  245   2 H    1       2.641295    9.150847    4.284534       1.0000      1.0079
  246   3 N    7       3.597134   10.428912    2.029681       7.0000     14.0067
  247   2 H    1       2.221990    9.088946    1.208350       1.0000      1.0079
  248   1 C    6      16.921705   14.276479   12.366201       6.0000     12.0107
  249   1 C    6      18.764830   14.157685   13.617692       6.0000     12.0107
  250   1 C    6      18.703740   13.025328   12.845018       6.0000     12.0107
  251   2 H    1      16.022824   14.644317   11.894335       1.0000      1.0079
  252   2 H    1      19.499479   14.477209   14.343319       1.0000      1.0079
  253   2 H    1      19.363618   12.173743   12.773709       1.0000      1.0079
  254   1 C    6      17.059162   12.115927   11.100365       6.0000     12.0107
  255   2 H    1      17.923368   11.605597   10.669184       1.0000      1.0079
  256   2 H    1      16.407383   11.408956   11.624377       1.0000      1.0079
  257   2 H    1      16.493519   12.626992   10.313528       1.0000      1.0079
  258   3 N    7      17.554021   13.126158   12.062027       7.0000     14.0067
  259   1 C    6      17.313250   16.270761   13.854802       6.0000     12.0107
  260   2 H    1      17.662872   16.278853   14.892551       1.0000      1.0079
  261   1 C    6      17.956487   17.397946   13.029330       6.0000     12.0107
  262   2 H    1      17.615699   17.351332   11.985687       1.0000      1.0079
  263   2 H    1      17.655190   18.363674   13.454832       1.0000      1.0079
  264   2 H    1      19.051419   17.326283   13.063463       1.0000      1.0079
  265   3 N    7      17.639825   14.924658   13.306939       7.0000     14.0067
  266   2 H    1      16.220498   16.359657   13.876463       1.0000      1.0079
  267   1 C    6       9.308021   14.996307    3.972998       6.0000     12.0107
  268   1 C    6      10.428206   15.196778    5.894992       6.0000     12.0107
  269   1 C    6       9.951178   16.436939    5.558514       6.0000     12.0107
  270   2 H    1       8.870823   14.589819    3.069343       1.0000      1.0079
  271   2 H    1      11.037697   14.861799    6.722446       1.0000      1.0079
  272   2 H    1      10.081043   17.399444    6.035228       1.0000      1.0079
  273   1 C    6       8.593348   17.369780    3.591986       6.0000     12.0107
  274   2 H    1       9.269965   18.230520    3.551406       1.0000      1.0079
  275   2 H    1       8.392603   17.010411    2.577800       1.0000      1.0079
  276   2 H    1       7.652903   17.634762    4.089421       1.0000      1.0079
  277   3 N    7       9.262244   16.290194    4.351053       7.0000     14.0067
  278   1 C    6      10.465661   12.897603    4.753663       6.0000     12.0107
  279   2 H    1       9.642271   12.352753    4.276170       1.0000      1.0079
  280   1 C    6      11.768001   12.808598    3.935788       6.0000     12.0107
  281   2 H    1      12.140263   11.775184    3.942169       1.0000      1.0079
  282   2 H    1      11.606928   13.111374    2.892709       1.0000      1.0079
  283   2 H    1      12.548925   13.446056    4.369543       1.0000      1.0079
  284   3 N    7      10.019651   14.312586    4.894477       7.0000     14.0067
  285   2 H    1      10.604872   12.503597    5.765832       1.0000      1.0079
  286   1 C    6      20.379240    5.097023    1.934636       6.0000     12.0107
  287   1 C    6      22.240304    4.761429    3.119904       6.0000     12.0107
  288   1 C    6      21.337877    3.785286    3.463572       6.0000     12.0107
  289   2 H    1      19.658608    5.501876    1.231308       1.0000      1.0079
  290   2 H    1      23.258165    4.930055    3.442442       1.0000      1.0079
  291   2 H    1      21.395484    2.976533    4.177149       1.0000      1.0079
  292   1 C    6      18.943863    3.203094    2.754367       6.0000     12.0107
  293   2 H    1      19.173013    2.164809    2.489206       1.0000      1.0079
  294   2 H    1      18.520029    3.261755    3.761601       1.0000      1.0079
  295   2 H    1      18.242337    3.625393    2.027740       1.0000      1.0079
  296   3 N    7      20.185284    4.010963    2.711761       7.0000     14.0067
  297   1 C    6      22.182353    6.816070    1.554316       6.0000     12.0107
  298   2 H    1      21.901810    6.824942    0.494631       1.0000      1.0079
  299   1 C    6      21.685635    8.077390    2.277780       6.0000     12.0107
  300   2 H    1      21.972456    8.073161    3.336978       1.0000      1.0079
  301   2 H    1      22.126079    8.966553    1.811331       1.0000      1.0079
  302   2 H    1      20.592369    8.169292    2.219722       1.0000      1.0079
  303   3 N    7      21.624624    5.568320    2.162359       7.0000     14.0067
  304   2 H    1      23.270600    6.721682    1.606381       1.0000      1.0079
  305   1 C    6      15.705423   17.622400    4.474994       6.0000     12.0107
  306   1 C    6      16.807702   19.107871    3.219131       6.0000     12.0107
  307   1 C    6      15.600409   18.853912    2.615233       6.0000     12.0107
  308   2 H    1      15.456242   16.908111    5.249967       1.0000      1.0079
  309   2 H    1      17.626491   19.752109    2.921882       1.0000      1.0079
  310   2 H    1      15.151831   19.240736    1.710635       1.0000      1.0079
[...]
 flops  1488 x   256 x   222        5195736023040       0.0%    100.0%      0.0%
 flops    26 x    32 x    18        5642138151936       0.0%    100.0%      0.0%
 flops    18 x    32 x    26        5642138151936       0.0%    100.0%      0.0%
 flops  1488 x   224 x    64        5652118241280       0.0%    100.0%      0.0%
 flops  1488 x   256 x    32        7267009167360       0.0%    100.0%      0.0%
 flops  1488 x   256 x    64       17225503211520       0.0%    100.0%      0.0%
 flops    18 x    32 x    18       19599352344576       0.0%    100.0%      0.0%
 flops inhomo. stacks              98293209696000     100.0%      0.0%      0.0%
 flops total                       223.850964E+12      43.9%     56.1%      0.0%
 flops max/rank                      1.954358E+12      44.2%     55.8%      0.0%
 matmuls inhomo. stacks                    950400     100.0%      0.0%      0.0%
 matmuls total                         4160684628       0.0%    100.0%      0.0%
 number of processed stacks              12540466       7.6%     92.4%      0.0%
 average stack size                                     1.0     358.9       0.0
 marketing flops                   319.384707E+12
 -------------------------------------------------------------------------------
 # multiplications                            530
 max memory usage/rank             930.095104E+06
 # max total images/rank                        6
 # max 3D layers                                1
 # MPI messages exchanged                 6932400
 MPI messages size (bytes):
  total size                         4.249049E+12
  min size                           0.000000E+00
  max size                           3.452160E+06
  average size                     612.926188E+03
 MPI breakdown and total messages size (bytes):
             size <=      128               87960                        0
       128 < size <=     8192                1458                 11943936
      8192 < size <=    32768                1782                 29045952
     32768 < size <=   131072             1640790             155657129760
    131072 < size <=  4194304             5200410            4093352041504
   4194304 < size <= 16777216                   0                        0
  16777216 < size                               0                        0
 -------------------------------------------------------------------------------

 *** WARNING in dbcsr_mm.F:290 :: Using a non-square number of MPI ranks ***
 *** might lead to poor performance. Used ranks: 120 Suggested: 121 225  ***

 -------------------------------------------------------------------------------
 -                                                                             -
 -                      DBCSR MESSAGE PASSING PERFORMANCE                      -
 -                                                                             -
 -------------------------------------------------------------------------------
 ROUTINE             CALLS      AVE VOLUME [Bytes]
 MP_Bcast              121                     12.
 MP_Allreduce         3034                     10.
 MP_Alltoall          2496                 625397.
 MP_ISend           122064                 304721.
 MP_IRecv           121094                 305830.
 -------------------------------------------------------------------------------

 -------------------------------------------------------------------------------
 -                                                                             -
 -                                DBM STATISTICS                               -
 -                                                                             -
 -------------------------------------------------------------------------------
    M  x    N  x    K                                          COUNT     PERCENT
 -------------------------------------------------------------------------------

 -------------------------------------------------------------------------------
 -                                                                             -
 -                                GRID STATISTICS                              -
 -                                                                             -
 -------------------------------------------------------------------------------
 LP    KERNEL             BACKEND                              COUNT     PERCENT
 1     collocate ortho    REF                               15228403      18.17%
 1     integrate ortho    REF                               13324866      15.90%
 2     collocate ortho    REF                               12439803      14.84%
 2     integrate ortho    REF                               10884813      12.99%
 0     collocate ortho    REF                                6060103       7.23%
 0     integrate ortho    REF                                5302560       6.33%
 2     collocate general  REF                                3916800       4.67%
 3     integrate ortho    REF                                3831482       4.57%
 3     collocate ortho    REF                                3513037       4.19%
 2     integrate general  REF                                3427200       4.09%
 4     integrate ortho    REF                                2132034       2.54%
 5     integrate ortho    REF                                1554990       1.86%
 0     collocate general  REF                                 489600       0.58%
 0     integrate general  REF                                 489600       0.58%
 5     integrate general  REF                                 489600       0.58%
 6     integrate ortho    REF                                 439098       0.52%
 4     collocate ortho    REF                                 261137       0.31%
 7     integrate ortho    REF                                  32640       0.04%
 -------------------------------------------------------------------------------

 MEMORY| Estimated peak process memory [MiB]                                 888

 -------------------------------------------------------------------------------
 ----                             MULTIGRID INFO                            ----
 -------------------------------------------------------------------------------
 count for grid        1:        6149277          cutoff [a.u.]          200.00
 count for grid        2:        2226513          cutoff [a.u.]           66.67
 count for grid        3:        2229741          cutoff [a.u.]           22.22
 count for grid        4:         809096          cutoff [a.u.]            7.41
 count for grid        5:           1200          cutoff [a.u.]            2.47
 total gridlevel count  :       11415827

 -------------------------------------------------------------------------------
 -                                                                             -
 -                         MESSAGE PASSING PERFORMANCE                         -
 -                                                                             -
 -------------------------------------------------------------------------------

 ROUTINE             CALLS      AVE VOLUME [Bytes]
 MP_Group                5
 MP_Bcast            71723                  32242.
 MP_Allreduce        99560                  14691.
 MP_Sync                25
 MP_Alltoall           967                5172798.
 MP_SendRecv          1904                   5678.
 MP_ISendRecv        22848                  25824.
 MP_Wait             30848
 MP_comm_split           8
 MP_ISend             7200                 216814.
 MP_IRecv             7200                 216814.
 MP_Recv               368                3809280.
 -------------------------------------------------------------------------------


 -------------------------------------------------------------------------------
 -                                                                             -
 -                           R E F E R E N C E S                               -
 -                                                                             -
 -------------------------------------------------------------------------------
 
 CP2K version 2022.1, the CP2K developers group (2022).
 CP2K is freely available from https://www.cp2k.org/ .

 Kuehne,Thomas D.; Iannuzzi,Marcella; Del Ben,Mauro;
 Rybkin,Vladimir V.; Seewald,Patrick; Stein,Frederick; Laino,Teodoro;
 Khaliullin,Rustam Z.; Schuett,Ole; Schiffmann,Florian; Golze,Dorothea;
 Wilhelm,Jan; Chulkov,Sergey; Bani-Hashemian,Mohammad Hossein;
 Weber,Valery; Borstnik,Urban; Taillefumier,Mathieu;
 Jakobovits,Alice Shoshana; Lazzaro,Alfio; Pabst,Hans; Mueller,Tiziano;
 Schade,Robert; Guidon,Manuel; Andermatt,Samuel; Holmberg,Nico;
 Schenter,Gregory K.; Hehn,Anna; Bussy,Augustin; Belleflamme,Fabian;
 Tabacchi,Gloria; Gloess,Andreas; Lass,Michael; Bethune,Iain;
 Mundy,Christopher J.; Plessl,Christian; Watkins,Matt;
 VandeVondele,Joost; Krack,Matthias; Hutter,Juerg. 
 The Journal of Chemical Physics, 152 (19), (2020). 
 CP2K: An electronic structure and molecular dynamics software package -
 Quickstep: Efficient and accurate electronic structure calculations.
 https://doi.org/10.1063/5.0007045

 Goerigk, Lars; Hansen, Andreas; Bauer, Christoph; Ehrlich, Stephan;
 Najibi, Asim; Grimme, Stefan. , 19 (48), (2017). 
 A look at the density functional theory zoo with the advanced GMTKN55 database
 for general main group thermochemistry, kinetics and noncovalent interactions.
 https://doi.org/10.1039/C7CP04913G

 Schuett, Ole; Messmer, Peter; Hutter, Juerg; VandeVondele, Joost. 
 Electronic Structure Calculations on Graphics Processing Units, John
 Wiley & Sons, Ltd, 173-190 (2016). 
 GPU-Accelerated Sparse Matrix-Matrix Multiplication for
 Linear Scaling Density Functional Theory.
 https://doi.org/10.1002/9781118670712.ch8

 Heinecke, A; Henry, G; Hutchinson, M; Pabst, H. 
 Proceedings of Intl. Supercomputing Conference, 981-991 (2016). 
 LIBXSMM: Accelerating Small Matrix Multiplications
 by Runtime Code Generation.
 https://doi.org/10.1109/SC.2016.83

 Borstnik, U; VandeVondele, J; Weber, V; Hutter, J. 
 PARALLEL COMPUTING, 40 (5-6), 47-58 (2014). 
 Sparse matrix multiplication: The distributed block-compressed sparse
 row library.
 https://doi.org/10.1016/j.parco.2014.03.012

 Hutter, J; Iannuzzi, M; Schiffmann, F; VandeVondele, J. 
 WIREs Comput Mol Sci., 4 (1), 15-25 (2014). 
 CP2K: atomistic simulations of condensed matter systems.
 https://doi.org/10.1002/wcms.1159

 Grimme, S; Ehrlich, S; Goerigk, L. 
 JOURNAL OF COMPUTATIONAL CHEMISTRY, 32, 1456 (2011). 
 Effect of the damping function in dispersion corrected density functional theory.
 https://doi.org/10.1002/jcc.21759

 Grimme, S; Antony, J; Ehrlich, S; Krieg, H. 
 JOURNAL OF CHEMICAL PHYSICS, 132 (15), 154104 (2010). 
 A consistent and accurate ab initio parametrization of density
 functional dispersion correction (DFT-D) for the 94 elements H-Pu.
 https://doi.org/10.1063/1.3382344

 Kuhne, TD; Krack, M; Mohamed, FR; Parrinello, M. 
 PHYSICAL REVIEW LETTERS, 98 (6), 066401 (2007). 
 Efficient and accurate Car-Parrinello-like approach to
 Born-Oppenheimer molecular dynamics.
 https://doi.org/10.1103/PhysRevLett.98.066401

 Frigo, M; Johnson, SG. 
 PROCEEDINGS OF THE IEEE, 93 (2), 216-231 (2005). 
 The design and implementation of FFTW3.
 https://doi.org/10.1109/JPROC.2004.840301

 Kolafa, J. 
 JOURNAL OF COMPUTATIONAL CHEMISTRY, 25 (3), 335-342 (2004). 
 Time-reversible always stable predictor-corrector method for
 molecular dynamics of polarizable molecules.
 https://doi.org/10.1002/jcc.10385

 VandeVondele, J; Hutter, J. 
 JOURNAL OF CHEMICAL PHYSICS, 118 (10), 4365-4369 (2003). 
 An efficient orbital transformation method for electronic structure
 calculations.
 https://doi.org/10.1063/1.1543154

 Lippert, G; Hutter, J; Parrinello, M. 
 THEORETICAL CHEMISTRY ACCOUNTS, 103 (2), 124-140 (1999). 
 The Gaussian and augmented-plane-wave density functional method for ab
 initio molecular dynamics simulations.
 https://doi.org/10.1007/s002140050523

 Krack, M; Parrinello, M. 
 PHYSICAL CHEMISTRY CHEMICAL PHYSICS, 2 (10), 2105-2112 (2000). 
 All-electron ab-initio molecular dynamics.
 https://doi.org/10.1039/b001167n

 BECKE, AD. PHYSICAL REVIEW A, 38 (6), 3098-3100 (1988). 
 DENSITY-FUNCTIONAL EXCHANGE-ENERGY APPROXIMATION WITH CORRECT
 ASYMPTOTIC-BEHAVIOR.
 https://doi.org/10.1103/PhysRevA.38.3098

 LEE, CT; YANG, WT; PARR, RG. 
 PHYSICAL REVIEW B, 37 (2), 785-789 (1988). 
 DEVELOPMENT OF THE COLLE-SALVETTI CORRELATION-ENERGY FORMULA INTO A
 FUNCTIONAL OF THE ELECTRON-DENSITY.
 https://doi.org/10.1103/PhysRevB.37.785

 NOSE, S. JOURNAL OF CHEMICAL PHYSICS, 81 (1), 511-519 (1984). 
 A UNIFIED FORMULATION OF THE CONSTANT TEMPERATURE MOLECULAR-DYNAMICS
 METHODS.
 https://doi.org/10.1063/1.447334

 NOSE, S. MOLECULAR PHYSICS, 52 (2), 255-268 (1984). 
 A MOLECULAR-DYNAMICS METHOD FOR SIMULATIONS IN THE CANONICAL ENSEMBLE.
 https://doi.org/10.1080/00268978400101201


 -------------------------------------------------------------------------------
 -                                                                             -
 -                                T I M I N G                                  -
 -                                                                             -
 -------------------------------------------------------------------------------
 SUBROUTINE                       CALLS  ASD         SELF TIME        TOTAL TIME
                                MAXIMUM       AVERAGE  MAXIMUM  AVERAGE  MAXIMUM
 CP2K                                 1  1.0    0.118    0.131  364.684  364.686
 qs_mol_dyn_low                       1  2.0    0.041    0.049  363.456  363.467
 qs_forces                            4  3.8    0.014    0.024  363.227  363.229
 qs_energies                          4  4.8    0.013    0.024  347.504  347.564
 scf_env_do_scf                       4  5.8    0.002    0.003  328.385  328.395
 velocity_verlet                      3  3.0    0.013    0.018  308.514  308.518
 scf_env_do_scf_inner_loop           28  7.0    0.007    0.029  172.029  172.876
 init_scf_loop                        4  6.8    0.002    0.003  155.353  155.358
 prepare_preconditioner               4  7.8    0.000    0.000  146.679  146.836
 make_preconditioner                  4  8.8    0.001    0.002  140.428  140.490
 dbcsr_multiply_generic             530 12.7    0.064    0.074  134.396  137.759
 make_full_all                        4  9.8    0.006    0.009  135.130  135.148
 multiply_cannon                    530 13.7    0.090    0.128  110.191  116.831
 qs_scf_new_mos                      28  8.0    0.000    0.000  113.378  114.201
 qs_scf_loop_do_ot                   28  9.0    0.001    0.002  113.378  114.201
 multiply_cannon_loop               530 14.7    0.333    0.365  106.090  112.949
 ot_scf_mini                         28 10.0    0.004    0.006  106.204  106.652
 multiply_cannon_multrec          31800 15.7   84.689   91.910   84.695   91.915
 cp_fm_syevd                         12 11.1    0.001    0.002   87.055   87.099
 cp_fm_syevd_base                    12 12.0   84.303   86.986   84.303   86.986
 ot_mini                             28 11.0    0.003    0.004   80.087   80.913
 rebuild_ks_matrix                   32  8.6    0.001    0.002   58.938   59.532
 qs_ks_build_kohn_sham_matrix        32  9.6    0.024    0.028   58.937   59.530
 qs_ks_update_qs_env                 32  7.9    0.001    0.001   48.085   48.591
 apply_preconditioner_dbcsr          32 12.9    0.000    0.000   44.333   45.256
 apply_all                           32 13.9    0.015    0.019   44.333   45.256
 ot_diis_step                        28 12.0    0.006    0.008   40.883   40.884
 qs_ot_get_derivative                28 12.0    0.002    0.002   38.826   39.258
 mp_waitall_1                     78768 16.1   14.037   32.260   14.037   32.260
 cp_fm_cholesky_reduce                4 10.8   22.339   22.351   22.339   22.351
 qs_ot_get_derivative_taylor         28 13.0    0.001    0.001   20.423   20.874
 qs_rho_update_rho_low               32  8.0    0.002    0.003   19.110   19.254
 multiply_cannon_metrocomm1       31800 15.7    0.068    0.078    3.910   18.368
 pw_transfer                        736 12.8    0.061    0.075   16.488   17.267
 fft_wrap_pw1pw2                    640 13.9    0.009    0.011   16.204   17.117
 multiply_cannon_metrocomm3       31800 15.7    0.057    0.065    6.564   16.792
 fft_wrap_pw1pw2_200                384 15.3    1.598    1.853   15.577   16.154
 make_m2s                          1060 13.7    0.054    0.077   15.596   16.122
 cp_gemm                             38  9.8    0.000    0.000   15.965   16.044
 cp_gemm_cosma                       38 10.8   15.965   16.044   15.965   16.044
 fft3d_ps                           640 15.9    5.720    6.532   12.130   15.044
 mp_sum_l                          2823 12.4    6.613   14.424    6.613   14.424
 mp_irecv_dv                      68689 16.5    6.768   14.242    6.768   14.242
 make_images                       1060 14.7    0.177    0.194   12.666   13.286
 init_scf_run                         4  5.8    0.001    0.002   12.796   12.799
 scf_env_initial_rho_setup            4  6.8    0.004    0.007   12.793   12.796
 qs_vxc_create                       32 10.6    0.005    0.007   12.283   12.285
 xc_vxc_pw_create                    32 11.6    0.375    0.548   12.278   12.279
 multiply_cannon_metrocomm4       29150 15.7    0.088    0.105    6.242   12.181
 qs_ks_update_qs_env_forces           4  4.8    0.000    0.000   11.076   11.157
 mp_alltoall_z22v                   640 17.9    4.756   11.119    4.756   11.119
 qs_ot_get_orbitals                  28 11.0    0.000    0.000   10.677   10.951
 subspace_eigenvalues_ks_dbcsr        8  9.2    0.000    0.001   10.792   10.902
 update_ks_atom                      32 10.6    7.549    8.939    8.667   10.055
 calculate_rho_elec                  32  9.0    0.026    0.033    9.669    9.812
 xc_pw_derive                       192 13.6    0.002    0.003    9.222    9.740
 calculate_rho_atom_coeff            32  9.0    5.927    6.619    9.440    9.441
 mp_isend_dv                      68406 16.5    6.171    9.216    6.171    9.216
 sum_up_and_integrate                32 10.6    0.066    0.087    9.002    9.036
 calculate_dm_sparse                 32  9.8    0.000    0.000    8.269    9.017
 mp_sum_dm                        98446 10.5    7.557    8.994    7.557    8.994
 integrate_v_rspace                  32 11.6    0.002    0.003    8.935    8.981
 rs_pw_transfer                     392 12.2    0.008    0.009    8.128    8.607
 make_images_data                  1060 15.7    0.028    0.046    6.346    8.563
 cp_fm_cholesky_restore               8 10.8    8.464    8.523    8.464    8.523
 hybrid_alltoall_any               1119 16.5    0.371    4.215    6.231    8.196
 mp_sum_d                          1216  7.8    4.003    8.071    4.003    8.071
 multiply_cannon_metrocomm2       28620 15.7    0.079    0.095    4.345    8.062
 wfi_extrapolate                      4  7.8    0.003    0.004    7.504    7.505
 qs_ot_get_p                         32 10.7    0.001    0.002    6.283    7.302
 -------------------------------------------------------------------------------

 The number of warnings for this run is : 1
 
 -------------------------------------------------------------------------------
  **** **** ******  **  PROGRAM ENDED AT                 2023-04-27 12:00:16.785
 ***** ** ***  *** **   PROGRAM RAN ON              c307-024.ls6.tacc.utexas.edu
 **    ****   ******    PROGRAM RAN BY                                  holiaei2
 ***** **    ** ** **   PROGRAM PROCESS ID                               2168364
  **** **  *******  **  PROGRAM STOPPED IN /work/07118/holiaei2/ls6/IL_proj/emim
                                           _tfsi/AIMD/bulk_30_pairs/4_MD_test/ou
                                           tput_files
