 DBCSR| CPU Multiplication driver                                           XSMM
 DBCSR| Multrec recursion limit                                              512
 DBCSR| Multiplication stack size                                           1000
 DBCSR| Maximum elements for images                                    UNLIMITED
 DBCSR| Multiplicative factor virtual images                                   1
 DBCSR| Use multiplication densification                                       T
 DBCSR| Multiplication size stacks                                             3
 DBCSR| Number of 3D layers                                               SINGLE
 DBCSR| Use MPI memory allocation                                              T
 DBCSR| Use RMA algorithm                                                      F
 DBCSR| Use Communication thread                                               T
 DBCSR| Communication thread load                                             87


  **** **** ******  **  PROGRAM STARTED AT               2022-08-29 17:34:39.428
 ***** ** ***  *** **   PROGRAM STARTED ON                               c51-003
 **    ****   ******    PROGRAM STARTED BY                              ybzhuang
 ***** **    ** ** **   PROGRAM PROCESS ID                                 17458
  **** **  *******  **  PROGRAM STARTED IN /data/ybzhuang/workdirs/water-ml/aimd

 CP2K| version string:                                          CP2K version 7.1
 CP2K| source code revision number:                                  git:e635599
 CP2K| cp2kflags: libint fftw3 libxc elpa parallel mpi3 scalapack xsmm spglib   
 CP2K| is freely available from                            https://www.cp2k.org/
 CP2K| Program compiled at                           Mon Mar 8 20:53:19 CST 2021
 CP2K| Program compiled on                                                 mgt01
 CP2K| Program compiled for                                                local
 CP2K| Data directory path                        /data/share/apps/cp2k/7.1/data
 CP2K| Input file name                                                 input.inp

 GLOBAL| Force Environment number                                              1
 GLOBAL| Basis set file name                                        BASIS_MOLOPT
 GLOBAL| Potential file name                                      GTH_POTENTIALS
 GLOBAL| MM Potential file name                                     MM_POTENTIAL
 GLOBAL| Coordinate file name                                      __STD_INPUT__
 GLOBAL| Method name                                                        CP2K
 GLOBAL| Project name                                                      water
 GLOBAL| Preferred FFT library                                             FFTW3
 GLOBAL| Preferred diagonalization lib.                                     ELPA
 GLOBAL| Run type                                                             MD
 GLOBAL| All-to-all communication in single precision                          F
 GLOBAL| FFTs using library dependent lengths                                  F
 GLOBAL| Global print level                                               MEDIUM
 GLOBAL| MPI I/O enabled                                                       T
 GLOBAL| Total number of message passing processes                            48
 GLOBAL| Number of threads for this process                                    1
 GLOBAL| This output is from process                                           0
 GLOBAL| CPU model name                Intel(R) Xeon(R) CPU E5-2680 v3 @ 2.50GHz
 GLOBAL| CPUID                                                              1002

 MEMORY| system memory details [Kb]
 MEMORY|                        rank 0           min           max       average
 MEMORY| MemTotal             65549312      65234672      65549312      65391992
 MEMORY| MemFree              60432128      60182008      60432128      60307068
 MEMORY| Buffers                  1036             0          1036           518
 MEMORY| Cached                 288032        259768        288032        273900
 MEMORY| Slab                   272224        246104        272224        259164
 MEMORY| SReclaimable            74708         66496         74708         70602
 MEMORY| MemLikelyFree        60795904      60508272      60795904      60652088


 *** Fundamental physical constants (SI units) ***

 *** Literature: B. J. Mohr and B. N. Taylor,
 ***             CODATA recommended values of the fundamental physical
 ***             constants: 2006, Web Version 5.1
 ***             http://physics.nist.gov/constants

 Speed of light in vacuum [m/s]                             2.99792458000000E+08
 Magnetic constant or permeability of vacuum [N/A**2]       1.25663706143592E-06
 Electric constant or permittivity of vacuum [F/m]          8.85418781762039E-12
 Planck constant (h) [J*s]                                  6.62606896000000E-34
 Planck constant (h-bar) [J*s]                              1.05457162825177E-34
 Elementary charge [C]                                      1.60217648700000E-19
 Electron mass [kg]                                         9.10938215000000E-31
 Electron g factor [ ]                                     -2.00231930436220E+00
 Proton mass [kg]                                           1.67262163700000E-27
 Fine-structure constant                                    7.29735253760000E-03
 Rydberg constant [1/m]                                     1.09737315685270E+07
 Avogadro constant [1/mol]                                  6.02214179000000E+23
 Boltzmann constant [J/K]                                   1.38065040000000E-23
 Atomic mass unit [kg]                                      1.66053878200000E-27
 Bohr radius [m]                                            5.29177208590000E-11

 *** Conversion factors ***

 [u] -> [a.u.]                                              1.82288848426455E+03
 [Angstrom] -> [Bohr] = [a.u.]                              1.88972613288564E+00
 [a.u.] = [Bohr] -> [Angstrom]                              5.29177208590000E-01
 [a.u.] -> [s]                                              2.41888432650478E-17
 [a.u.] -> [fs]                                             2.41888432650478E-02
 [a.u.] -> [J]                                              4.35974393937059E-18
 [a.u.] -> [N]                                              8.23872205491840E-08
 [a.u.] -> [K]                                              3.15774647902944E+05
 [a.u.] -> [kJ/mol]                                         2.62549961709828E+03
 [a.u.] -> [kcal/mol]                                       6.27509468713739E+02
 [a.u.] -> [Pa]                                             2.94210107994716E+13
 [a.u.] -> [bar]                                            2.94210107994716E+08
 [a.u.] -> [atm]                                            2.90362800883016E+08
 [a.u.] -> [eV]                                             2.72113838565563E+01
 [a.u.] -> [Hz]                                             6.57968392072181E+15
 [a.u.] -> [1/cm] (wave numbers)                            2.19474631370540E+05
 [a.u./Bohr**2] -> [1/cm]                                   5.14048714338585E+03
 

 CELL_TOP| Volume [angstrom^3]:                                         1915.864
 CELL_TOP| Vector a [angstrom    12.420     0.000     0.000    |a| =      12.420
 CELL_TOP| Vector b [angstrom     0.000    12.420     0.000    |b| =      12.420
 CELL_TOP| Vector c [angstrom     0.000     0.000    12.420    |c| =      12.420
 CELL_TOP| Angle (b,c), alpha [degree]:                                   90.000
 CELL_TOP| Angle (a,c), beta  [degree]:                                   90.000
 CELL_TOP| Angle (a,b), gamma [degree]:                                   90.000
 CELL_TOP| Numerically orthorhombic:                                         YES

 GENERATE|  Preliminary Number of Bonds generated:                             0
 GENERATE|  Achieved consistency in connectivity generation.

 CELL| Volume [angstrom^3]:                                             1915.864
 CELL| Vector a [angstrom]:      12.420     0.000     0.000    |a| =      12.420
 CELL| Vector b [angstrom]:       0.000    12.420     0.000    |b| =      12.420
 CELL| Vector c [angstrom]:       0.000     0.000    12.420    |c| =      12.420
 CELL| Angle (b,c), alpha [degree]:                                       90.000
 CELL| Angle (a,c), beta  [degree]:                                       90.000
 CELL| Angle (a,b), gamma [degree]:                                       90.000
 CELL| Numerically orthorhombic:                                             YES

 CELL_REF| Volume [angstrom^3]:                                         1915.864
 CELL_REF| Vector a [angstrom    12.420     0.000     0.000    |a| =      12.420
 CELL_REF| Vector b [angstrom     0.000    12.420     0.000    |b| =      12.420
 CELL_REF| Vector c [angstrom     0.000     0.000    12.420    |c| =      12.420
 CELL_REF| Angle (b,c), alpha [degree]:                                   90.000
 CELL_REF| Angle (a,c), beta  [degree]:                                   90.000
 CELL_REF| Angle (a,b), gamma [degree]:                                   90.000
 CELL_REF| Numerically orthorhombic:                                         YES

 *******************************************************************************
 *******************************************************************************
 **                                                                           **
 **     #####                         ##              ##                      **
 **    ##   ##            ##          ##              ##                      **
 **   ##     ##                       ##            ######                    **
 **   ##     ##  ##   ##  ##   #####  ##  ##   ####   ##    #####    #####    **
 **   ##     ##  ##   ##  ##  ##      ## ##   ##      ##   ##   ##  ##   ##   **
 **   ##  ## ##  ##   ##  ##  ##      ####     ###    ##   ######   ######    **
 **    ##  ###   ##   ##  ##  ##      ## ##      ##   ##   ##       ##        **
 **     #######   #####   ##   #####  ##  ##  ####    ##    #####   ##        **
 **           ##                                                    ##        **
 **                                                                           **
 **                                                ... make the atoms dance   **
 **                                                                           **
 **            Copyright (C) by CP2K developers group (2000 - 2019)           **
 **                                                                           **
 *******************************************************************************

 DFT| Spin restricted Kohn-Sham (RKS) calculation                            RKS
 DFT| Multiplicity                                                             1
 DFT| Number of spin states                                                    1
 DFT| Charge                                                                   0
 DFT| Self-interaction correction (SIC)                                       NO
 DFT| Cutoffs: density                                              1.000000E-10
 DFT|          gradient                                             1.000000E-10
 DFT|          tau                                                  1.000000E-10
 DFT|          cutoff_smoothing_range                               0.000000E+00
 DFT| XC density smoothing                                                  NONE
 DFT| XC derivatives                                                          PW
 FUNCTIONAL| ROUTINE=NEW
 FUNCTIONAL| PBE:
 FUNCTIONAL| J.P.Perdew, K.Burke, M.Ernzerhof, Phys. Rev. Letter, vol. 77, n 18,
 FUNCTIONAL|  pp. 3865-3868, (1996){spin unpolarized}                           
 vdW POTENTIAL|                                                   Pair Potential
 vdW POTENTIAL|          DFT-D3 (Version 3.1)
 vdW POTENTIAL|          Potential Form: S. Grimme et al, JCP 132: 154104 (2010)
 vdW POTENTIAL|          Zero Damping
 vdW POTENTIAL|          Cutoff Radius [Bohr]:                             20.00
 vdW POTENTIAL|          s6 Scaling Factor:                               1.0000
 vdW POTENTIAL|          sr6 Scaling Factor:                              1.2170
 vdW POTENTIAL|          s8 Scaling Factor:                               0.7220
 vdW POTENTIAL|          Cutoff for CN calculation:                   0.1000E-05

 QS| Method:                                                                 GPW
 QS| Density plane wave grid type                        NON-SPHERICAL FULLSPACE
 QS| Number of grid levels:                                                    4
 QS| Density cutoff [a.u.]:                                                200.0
 QS| Multi grid cutoff [a.u.]: 1) grid level                               200.0
 QS|                           2) grid level                                66.7
 QS|                           3) grid level                                22.2
 QS|                           4) grid level                                 7.4
 QS| Grid level progression factor:                                          3.0
 QS| Relative density cutoff [a.u.]:                                        35.0
 QS| Consistent realspace mapping and integration 
 QS| Interaction thresholds: eps_pgf_orb:                                3.2E-07
 QS|                         eps_filter_matrix:                          0.0E+00
 QS|                         eps_core_charge:                            1.0E-15
 QS|                         eps_rho_gspace:                             1.0E-13
 QS|                         eps_rho_rspace:                             1.0E-13
 QS|                         eps_gvg_rspace:                             3.2E-07
 QS|                         eps_ppl:                                    1.0E-02
 QS|                         eps_ppnl:                                   3.2E-09


 ATOMIC KIND INFORMATION

  1. Atomic kind: O                                     Number of atoms:      64

     Orbital Basis Set                                        DZVP-MOLOPT-SR-GTH

       Number of orbital shell sets:                                           1
       Number of orbital shells:                                               5
       Number of primitive Cartesian functions:                                5
       Number of Cartesian basis functions:                                   14
       Number of spherical basis functions:                                   13
       Norm type:                                                              2

       Normalised Cartesian orbitals:

                        Set   Shell   Orbital            Exponent    Coefficient

                          1       1    2s               10.389228       0.396646
                                                         3.849621       0.208811
                                                         1.388401      -0.301641
                                                         0.496955      -0.274061
                                                         0.162492      -0.033677

                          1       2    3s               10.389228       0.303673
                                                         3.849621       0.240943
                                                         1.388401      -0.313066
                                                         0.496955      -0.043055
                                                         0.162492       0.213991

                          1       3    3px              10.389228      -1.530415
                                                         3.849621      -1.371928
                                                         1.388401      -0.761951
                                                         0.496955      -0.253695
                                                         0.162492      -0.035541
                          1       3    3py              10.389228      -1.530415
                                                         3.849621      -1.371928
                                                         1.388401      -0.761951
                                                         0.496955      -0.253695
                                                         0.162492      -0.035541
                          1       3    3pz              10.389228      -1.530415
                                                         3.849621      -1.371928
                                                         1.388401      -0.761951
                                                         0.496955      -0.253695
                                                         0.162492      -0.035541

                          1       4    4px              10.389228      -0.565392
                                                         3.849621      -0.038231
                                                         1.388401      -0.382373
                                                         0.496955       0.179070
                                                         0.162492       0.122714
                          1       4    4py              10.389228      -0.565392
                                                         3.849621      -0.038231
                                                         1.388401      -0.382373
                                                         0.496955       0.179070
                                                         0.162492       0.122714
                          1       4    4pz              10.389228      -0.565392
                                                         3.849621      -0.038231
                                                         1.388401      -0.382373
                                                         0.496955       0.179070
                                                         0.162492       0.122714

                          1       5    4dx2             10.389228       1.867377
                                                         3.849621       0.670994
                                                         1.388401       1.353441
                                                         0.496955       0.273538
                                                         0.162492       0.006620
                          1       5    4dxy             10.389228       3.234392
                                                         3.849621       1.162195
                                                         1.388401       2.344229
                                                         0.496955       0.473781
                                                         0.162492       0.011466
                          1       5    4dxz             10.389228       3.234392
                                                         3.849621       1.162195
                                                         1.388401       2.344229
                                                         0.496955       0.473781
                                                         0.162492       0.011466
                          1       5    4dy2             10.389228       1.867377
                                                         3.849621       0.670994
                                                         1.388401       1.353441
                                                         0.496955       0.273538
                                                         0.162492       0.006620
                          1       5    4dyz             10.389228       3.234392
                                                         3.849621       1.162195
                                                         1.388401       2.344229
                                                         0.496955       0.473781
                                                         0.162492       0.011466
                          1       5    4dz2             10.389228       1.867377
                                                         3.849621       0.670994
                                                         1.388401       1.353441
                                                         0.496955       0.273538
                                                         0.162492       0.006620

     GTH Potential information for                                    GTH-PBE-q6

       Description:                       Goedecker-Teter-Hutter pseudopotential
                                           Goedecker et al., PRB 54, 1703 (1996)
                                          Hartwigsen et al., PRB 58, 3641 (1998)
                                                      Krack, TCA 114, 145 (2005)

       Gaussian exponent of the core charge distribution:               8.360253
       Electronic configuration (s p d ...):                               2   4

       Parameters of the local part of the GTH pseudopotential:

                          rloc        C1          C2          C3          C4
                        0.244554  -16.667215    2.487311

       Parameters of the non-local part of the GTH pseudopotential:

                   l      r(l)      h(i,j,l)

                   0    0.220956   18.337458
                   1    0.211332

  2. Atomic kind: H                                     Number of atoms:     128

     Orbital Basis Set                                        DZVP-MOLOPT-SR-GTH

       Number of orbital shell sets:                                           1
       Number of orbital shells:                                               3
       Number of primitive Cartesian functions:                                5
       Number of Cartesian basis functions:                                    5
       Number of spherical basis functions:                                    5
       Norm type:                                                              2

       Normalised Cartesian orbitals:

                        Set   Shell   Orbital            Exponent    Coefficient

                          1       1    2s               10.068468      -0.133023
                                                         2.680223      -0.177618
                                                         0.791502      -0.258419
                                                         0.239116      -0.107525
                                                         0.082193      -0.014019

                          1       2    3s               10.068468       0.344673
                                                         2.680223       1.819821
                                                         0.791502      -0.999069
                                                         0.239116       0.017430
                                                         0.082193       0.082660

                          1       3    3px              10.068468       0.155326
                                                         2.680223       0.367157
                                                         0.791502       0.311480
                                                         0.239116       0.080105
                                                         0.082193       0.033440
                          1       3    3py              10.068468       0.155326
                                                         2.680223       0.367157
                                                         0.791502       0.311480
                                                         0.239116       0.080105
                                                         0.082193       0.033440
                          1       3    3pz              10.068468       0.155326
                                                         2.680223       0.367157
                                                         0.791502       0.311480
                                                         0.239116       0.080105
                                                         0.082193       0.033440

     GTH Potential information for                                    GTH-PBE-q1

       Description:                       Goedecker-Teter-Hutter pseudopotential
                                           Goedecker et al., PRB 54, 1703 (1996)
                                          Hartwigsen et al., PRB 58, 3641 (1998)
                                                      Krack, TCA 114, 145 (2005)

       Gaussian exponent of the core charge distribution:              12.500000
       Electronic configuration (s p d ...):                                   1

       Parameters of the local part of the GTH pseudopotential:

                          rloc        C1          C2          C3          C4
                        0.200000   -4.178900    0.724463


 MOLECULE KIND INFORMATION


 All atoms are their own molecule, skipping detailed information


 TOTAL NUMBERS AND MAXIMUM NUMBERS

  Total number of            - Atomic kinds:                                   2
                             - Atoms:                                        192
                             - Shell sets:                                   192
                             - Shells:                                       704
                             - Primitive Cartesian functions:                960
                             - Cartesian basis functions:                   1536
                             - Spherical basis functions:                   1472

  Maximum angular momentum of- Orbital basis functions:                        2
                             - Local part of the GTH pseudopotential:          2
                             - Non-local part of the GTH pseudopotential:      0


 MODULE QUICKSTEP:  ATOMIC COORDINATES IN angstrom

  Atom  Kind  Element       X           Y           Z          Z(eff)       Mass

       1     1 O    8    5.223037    5.396548    8.892441      6.00      15.9994
       2     2 H    1    6.054621    4.850276    8.972109      1.00       1.0079
       3     2 H    1    5.466918    6.093543    8.066919      1.00       1.0079
       4     1 O    8    3.272792    3.067216    0.085909      6.00      15.9994
       5     2 H    1    2.599209    3.605896   12.286143      1.00       1.0079
       6     2 H    1    3.061792    2.652829    0.939499      1.00       1.0079
       7     1 O    8    8.768679   12.202877    4.774979      6.00      15.9994
       8     2 H    1    9.588864   11.689442    4.406870      1.00       1.0079
       9     2 H    1    9.253221    0.495322    5.281415      1.00       1.0079
      10     1 O    8    3.761132    7.909652    8.544611      6.00      15.9994
      11     2 H    1    3.038981    8.008946    9.269028      1.00       1.0079
      12     2 H    1    4.192750    7.039254    8.752694      1.00       1.0079
      13     1 O    8    5.057965    0.423174    8.396083      6.00      15.9994
      14     2 H    1    4.842503   12.115953    9.018431      1.00       1.0079
      15     2 H    1    4.645162    1.151514    8.872237      1.00       1.0079
      16     1 O    8    8.318097    6.189529    1.857012      6.00      15.9994
      17     2 H    1    8.605496    6.788316    1.102342      1.00       1.0079
      18     2 H    1    7.574253    5.651642    1.455592      1.00       1.0079
      19     1 O    8    3.542913    2.536936    8.257520      6.00      15.9994
      20     2 H    1    3.887099    3.104987    7.571097      1.00       1.0079
      21     2 H    1    3.014028    3.286430    8.709300      1.00       1.0079
      22     1 O    8    0.171198    1.167522    7.339349      6.00      15.9994
      23     2 H    1   12.275457    1.212745    8.267687      1.00       1.0079
      24     2 H    1    0.875487    0.489734    7.365327      1.00       1.0079
      25     1 O    8    2.643730    0.851140   11.178316      6.00      15.9994
      26     2 H    1    2.598953    1.771443   11.650586      1.00       1.0079
      27     2 H    1    3.523259    0.833433   10.632962      1.00       1.0079
      28     1 O    8    9.803532    4.203096    7.386092      6.00      15.9994
      29     2 H    1    9.701183    5.184781    7.153694      1.00       1.0079
      30     2 H    1   10.798000    3.920903    7.319859      1.00       1.0079
      31     1 O    8    1.358576   10.330018   11.757773      6.00      15.9994
      32     2 H    1    1.875520   11.089813   11.613352      1.00       1.0079
      33     2 H    1    1.332705   10.110039    0.282978      1.00       1.0079
      34     1 O    8    8.869991    9.237160    5.855156      6.00      15.9994
      35     2 H    1    9.202615    9.685087    5.027640      1.00       1.0079
      36     2 H    1    9.400818    8.354168    5.983294      1.00       1.0079
      37     1 O    8    4.996533    6.951950    4.393941      6.00      15.9994
      38     2 H    1    4.548886    6.336209    3.691648      1.00       1.0079
      39     2 H    1    5.632562    6.314894    4.985663      1.00       1.0079
      40     1 O    8    8.278531    2.728823   10.954792      6.00      15.9994
      41     2 H    1    7.513262    2.234396   11.248698      1.00       1.0079
      42     2 H    1    7.975551    3.533041   10.375686      1.00       1.0079
      43     1 O    8    1.995786   10.172841    1.946199      6.00      15.9994
      44     2 H    1    2.645719   10.922791    2.238346      1.00       1.0079
      45     2 H    1    2.645725    9.579645    1.475650      1.00       1.0079
      46     1 O    8   10.284216    6.777339   11.836937      6.00      15.9994
      47     2 H    1   10.975758    6.869676    0.138724      1.00       1.0079
      48     2 H    1   10.506143    7.619359   11.315179      1.00       1.0079
      49     1 O    8    4.080927   10.557924    9.672628      6.00      15.9994
      50     2 H    1    4.872867   10.391230   10.269597      1.00       1.0079
      51     2 H    1    4.268404    9.771283    8.976173      1.00       1.0079
      52     1 O    8   10.074253    3.993110   12.386284      6.00      15.9994
      53     2 H    1    9.926975    4.982654    0.058631      1.00       1.0079
      54     2 H    1    9.527363    3.390679   11.852779      1.00       1.0079
      55     1 O    8    6.122624    5.590312    6.481472      6.00      15.9994
      56     2 H    1    5.722824    5.798511    7.445911      1.00       1.0079
      57     2 H    1    7.071170    5.370787    6.416018      1.00       1.0079
      58     1 O    8    0.853364    9.714848    4.925847      6.00      15.9994
      59     2 H    1    1.165118   10.578086    4.556256      1.00       1.0079
      60     2 H    1    1.630696    9.110513    5.064409      1.00       1.0079
      61     1 O    8    8.305623    5.046667    9.382501      6.00      15.9994
      62     2 H    1    8.873504    5.293534   10.141678      1.00       1.0079
      63     2 H    1    8.925063    4.692496    8.718313      1.00       1.0079
      64     1 O    8    1.559983    8.350889    9.986211      6.00      15.9994
      65     2 H    1    1.200276    8.904719    9.317928      1.00       1.0079
      66     2 H    1    1.699360    9.129597   10.582358      1.00       1.0079
      67     1 O    8    0.625762   10.084501    7.515576      6.00      15.9994
      68     2 H    1    0.711657    9.792030    6.618300      1.00       1.0079
      69     2 H    1   12.093699    9.950387    7.804914      1.00       1.0079
      70     1 O    8    1.553430    1.813982    2.141703      6.00      15.9994
      71     2 H    1    1.287829    0.805761    1.891128      1.00       1.0079
      72     2 H    1    0.687547    2.328190    2.111489      1.00       1.0079
      73     1 O    8    6.113807    9.120239   11.375210      6.00      15.9994
      74     2 H    1    6.836871    9.450847   11.947890      1.00       1.0079
      75     2 H    1    6.634376    9.313802   10.519453      1.00       1.0079
      76     1 O    8    8.222305    2.622942    2.034050      6.00      15.9994
      77     2 H    1    8.800156    3.109027    2.615491      1.00       1.0079
      78     2 H    1    8.360104    3.165341    1.201349      1.00       1.0079
      79     1 O    8    0.070630    7.032892    3.536866      6.00      15.9994
      80     2 H    1    0.389454    6.690443    4.391876      1.00       1.0079
      81     2 H    1   12.405054    7.961905    3.680690      1.00       1.0079
      82     1 O    8    6.516875    2.962171    4.337299      6.00      15.9994
      83     2 H    1    7.025891    2.600945    3.543265      1.00       1.0079
      84     2 H    1    6.124700    2.148726    4.668136      1.00       1.0079
      85     1 O    8   11.810122    5.810682    9.733099      6.00      15.9994
      86     2 H    1   11.493890    6.041923   10.705153      1.00       1.0079
      87     2 H    1    0.236845    6.331684    9.724704      1.00       1.0079
      88     1 O    8    7.092998   11.326864    7.714417      6.00      15.9994
      89     2 H    1    6.659166   10.827395    6.962132      1.00       1.0079
      90     2 H    1    6.401241   12.000128    8.058126      1.00       1.0079
      91     1 O    8    0.196779    7.108174    0.890479      6.00      15.9994
      92     2 H    1    0.150152    6.796245    1.773409      1.00       1.0079
      93     2 H    1    1.059881    7.174897    0.462962      1.00       1.0079
      94     1 O    8    0.342630    6.382623    6.339644      6.00      15.9994
      95     2 H    1    1.212139    6.730067    6.509684      1.00       1.0079
      96     2 H    1    0.224770    5.493115    6.789267      1.00       1.0079
      97     1 O    8    2.510013    7.818232    6.066255      6.00      15.9994
      98     2 H    1    3.264412    7.333616    5.598110      1.00       1.0079
      99     2 H    1    2.838906    8.004405    7.066060      1.00       1.0079
     100     1 O    8    9.569160    6.553553    4.294840      6.00      15.9994
     101     2 H    1   10.408884    6.938374    3.895864      1.00       1.0079
     102     2 H    1    9.003228    6.549418    3.491285      1.00       1.0079
     103     1 O    8    5.114042    6.236462   11.434459      6.00      15.9994
     104     2 H    1    5.724125    6.955507   11.469153      1.00       1.0079
     105     2 H    1    5.160208    5.842034   10.509937      1.00       1.0079
     106     1 O    8    0.657452    3.524921   11.635611      6.00      15.9994
     107     2 H    1   12.294464    4.043312   11.528910      1.00       1.0079
     108     2 H    1    0.292829    2.805943   11.076823      1.00       1.0079
     109     1 O    8    7.327370    8.627207    8.571242      6.00      15.9994
     110     2 H    1    7.226645    8.144878    7.670654      1.00       1.0079
     111     2 H    1    7.371574    9.572077    8.346288      1.00       1.0079
     112     1 O    8   10.428079    9.740801    3.765335      6.00      15.9994
     113     2 H    1   11.403043    9.902588    4.030302      1.00       1.0079
     114     2 H    1   10.094396   10.454183    3.159324      1.00       1.0079
     115     1 O    8    6.144559    9.889242    5.703438      6.00      15.9994
     116     2 H    1    7.215772    9.779473    5.585636      1.00       1.0079
     117     2 H    1    5.850592    8.896674    5.630439      1.00       1.0079
     118     1 O    8    9.915213    3.866655    4.257318      6.00      15.9994
     119     2 H    1    9.719929    4.088750    5.202218      1.00       1.0079
     120     2 H    1    9.903714    4.706585    3.817789      1.00       1.0079
     121     1 O    8   10.268134    7.216381    7.095386      6.00      15.9994
     122     2 H    1   10.671495    7.555437    7.966924      1.00       1.0079
     123     2 H    1   11.192577    6.857095    6.777935      1.00       1.0079
     124     1 O    8    2.658751    4.818843    9.445264      6.00      15.9994
     125     2 H    1    2.710003    4.677991   10.384773      1.00       1.0079
     126     2 H    1    3.638462    5.068180    9.229893      1.00       1.0079
     127     1 O    8   11.804946    3.406323    2.036874      6.00      15.9994
     128     2 H    1   11.110586    3.561944    1.408863      1.00       1.0079
     129     2 H    1   11.373317    3.473635    2.914871      1.00       1.0079
     130     1 O    8    2.676694   11.635081    7.347463      6.00      15.9994
     131     2 H    1    2.925499   11.187157    8.185636      1.00       1.0079
     132     2 H    1    1.893887   11.140651    7.016103      1.00       1.0079
     133     1 O    8    8.375851   12.378616    1.590280      6.00      15.9994
     134     2 H    1    8.011200   12.063751    2.534834      1.00       1.0079
     135     2 H    1    9.063581    0.636166    1.859204      1.00       1.0079
     136     1 O    8    3.747368    4.055932    5.638289      6.00      15.9994
     137     2 H    1    4.559737    4.479502    5.917568      1.00       1.0079
     138     2 H    1    3.011249    4.499485    6.150689      1.00       1.0079
     139     1 O    8    5.657171   11.651517    3.551158      6.00      15.9994
     140     2 H    1    5.880432   11.116748    4.366989      1.00       1.0079
     141     2 H    1    4.898689   12.185489    3.807335      1.00       1.0079
     142     1 O    8    4.174795    5.524470    2.318509      6.00      15.9994
     143     2 H    1    4.755796    4.851817    1.786392      1.00       1.0079
     144     2 H    1    3.440187    5.067400    2.740834      1.00       1.0079
     145     1 O    8   11.642006    0.380255    1.145374      6.00      15.9994
     146     2 H    1   11.439132   12.153370    0.427193      1.00       1.0079
     147     2 H    1   11.772125    1.129520    0.558969      1.00       1.0079
     148     1 O    8    6.288863   12.386201   10.697555      6.00      15.9994
     149     2 H    1    6.272318    0.479382   11.607705      1.00       1.0079
     150     2 H    1    6.654720    0.730523   10.169529      1.00       1.0079
     151     1 O    8    9.721529   10.508406    8.161909      6.00      15.9994
     152     2 H    1    8.865817   10.964670    8.095049      1.00       1.0079
     153     2 H    1    9.717703   10.139861    7.294444      1.00       1.0079
     154     1 O    8    8.579884   11.070493   11.699543      6.00      15.9994
     155     2 H    1    8.466572   11.604546    0.139491      1.00       1.0079
     156     2 H    1    8.018913   11.327046   11.000570      1.00       1.0079
     157     1 O    8    2.130762   12.257266    4.115021      6.00      15.9994
     158     2 H    1    2.799154    0.312222    4.724033      1.00       1.0079
     159     2 H    1    1.674424    0.544326    3.766723      1.00       1.0079
     160     1 O    8   11.326726   11.262262   11.172407      6.00      15.9994
     161     2 H    1   11.913555   10.480322   11.436902      1.00       1.0079
     162     2 H    1   10.339035   11.034407   11.336098      1.00       1.0079
     163     1 O    8    0.141314    1.048126   10.031201      6.00      15.9994
     164     2 H    1   11.973788    0.229319   10.160922      1.00       1.0079
     165     2 H    1    0.964512    0.781310   10.491959      1.00       1.0079
     166     1 O    8   10.941511    1.160823    5.194597      6.00      15.9994
     167     2 H    1   11.471049    1.312060    6.030617      1.00       1.0079
     168     2 H    1   10.560123    1.927494    4.818480      1.00       1.0079
     169     1 O    8   10.342512    8.456194    9.494140      6.00      15.9994
     170     2 H    1    9.427649    8.113182    9.400428      1.00       1.0079
     171     2 H    1   10.186089    9.356621    9.100835      1.00       1.0079
     172     1 O    8    0.374369    4.106635    7.841251      6.00      15.9994
     173     2 H    1    0.467157    3.186458    7.693092      1.00       1.0079
     174     2 H    1    0.543417    4.305699    8.759830      1.00       1.0079
     175     1 O    8    3.296711    7.877489    0.856292      6.00      15.9994
     176     2 H    1    3.267019    7.383209    1.682300      1.00       1.0079
     177     2 H    1    3.639534    7.212665    0.199263      1.00       1.0079
     178     1 O    8    6.621618    4.683755    0.211079      6.00      15.9994
     179     2 H    1    5.911329    5.316531    0.017839      1.00       1.0079
     180     2 H    1    6.780248    4.323369   11.741126      1.00       1.0079
     181     1 O    8    4.189964    1.288940    5.490512      6.00      15.9994
     182     2 H    1    4.020794    1.041695    6.423956      1.00       1.0079
     183     2 H    1    3.884326    2.224092    5.454514      1.00       1.0079
     184     1 O    8    5.784414    1.115629    1.298856      6.00      15.9994
     185     2 H    1    6.511028    1.624688    1.603486      1.00       1.0079
     186     2 H    1    5.665156    0.281329    1.876048      1.00       1.0079
     187     1 O    8    5.448415    2.842670   10.558391      6.00      15.9994
     188     2 H    1    4.755723    2.922921   11.282868      1.00       1.0079
     189     2 H    1    5.089012    3.349580    9.805362      1.00       1.0079
     190     1 O    8    6.401453    8.368306    1.876554      6.00      15.9994
     191     2 H    1    5.444833    8.378468    1.758026      1.00       1.0079
     192     2 H    1    6.489489    7.884555    2.727795      1.00       1.0079




 SCF PARAMETERS         Density guess:                                   RESTART
                        --------------------------------------------------------
                        max_scf:                                              50
                        max_scf_history:                                       0
                        max_diis:                                              4
                        --------------------------------------------------------
                        eps_scf:                                        3.00E-07
                        eps_scf_history:                                0.00E+00
                        eps_diis:                                       1.00E-01
                        eps_eigval:                                     1.00E-05
                        --------------------------------------------------------
                        level_shift [a.u.]:                                 0.00
                        --------------------------------------------------------
                        Outer loop SCF in use 
                        No variables optimised in outer loop
                        eps_scf                                         3.00E-07
                        max_scf                                               10
                        No outer loop optimization
                        step_size                                       5.00E-01

 PW_GRID| Information for grid number                                          1
 PW_GRID| Grid distributed over                                    48 processors
 PW_GRID| Real space group dimensions                                    48    1
 PW_GRID| the grid is blocked:                                                NO
 PW_GRID| Cutoff [a.u.]                                                    200.0
 PW_GRID| spherical cutoff:                                                   NO
 PW_GRID|   Bounds   1            -75      74                Points:         150
 PW_GRID|   Bounds   2            -75      74                Points:         150
 PW_GRID|   Bounds   3            -75      74                Points:         150
 PW_GRID| Volume element (a.u.^3)  0.3831E-02     Volume (a.u.^3)     12928.8946
 PW_GRID| Grid span                                                    FULLSPACE
 PW_GRID|   Distribution                         Average         Max         Min
 PW_GRID|   G-Vectors                            70312.5       70350       70200
 PW_GRID|   G-Rays                                 468.8         469         468
 PW_GRID|   Real Space Points                    70312.5       90000       67500

 PW_GRID| Information for grid number                                          2
 PW_GRID| Number of the reference grid                                         1
 PW_GRID| Grid distributed over                                    48 processors
 PW_GRID| Real space group dimensions                                    48    1
 PW_GRID| the grid is blocked:                                                NO
 PW_GRID| Cutoff [a.u.]                                                     66.7
 PW_GRID| spherical cutoff:                                                   NO
 PW_GRID|   Bounds   1            -45      44                Points:          90
 PW_GRID|   Bounds   2            -45      44                Points:          90
 PW_GRID|   Bounds   3            -45      44                Points:          90
 PW_GRID| Volume element (a.u.^3)  0.1774E-01     Volume (a.u.^3)     12928.8946
 PW_GRID| Grid span                                                    FULLSPACE
 PW_GRID|   Distribution                         Average         Max         Min
 PW_GRID|   G-Vectors                            15187.5       15300       15120
 PW_GRID|   G-Rays                                 168.8         170         168
 PW_GRID|   Real Space Points                    15187.5       16200        8100

 PW_GRID| Information for grid number                                          3
 PW_GRID| Number of the reference grid                                         1
 PW_GRID| Grid distributed over                                    48 processors
 PW_GRID| Real space group dimensions                                    48    1
 PW_GRID| the grid is blocked:                                                NO
 PW_GRID| Cutoff [a.u.]                                                     22.2
 PW_GRID| spherical cutoff:                                                   NO
 PW_GRID|   Bounds   1            -27      26                Points:          54
 PW_GRID|   Bounds   2            -27      26                Points:          54
 PW_GRID|   Bounds   3            -27      26                Points:          54
 PW_GRID| Volume element (a.u.^3)  0.8211E-01     Volume (a.u.^3)     12928.8946
 PW_GRID| Grid span                                                    FULLSPACE
 PW_GRID|   Distribution                         Average         Max         Min
 PW_GRID|   G-Vectors                             3280.5        3402        3186
 PW_GRID|   G-Rays                                  60.8          63          59
 PW_GRID|   Real Space Points                     3280.5        5832        2916

 PW_GRID| Information for grid number                                          4
 PW_GRID| Number of the reference grid                                         1
 PW_GRID| Grid distributed over                                    48 processors
 PW_GRID| Real space group dimensions                                     6    8
 PW_GRID| the grid is blocked:                                                NO
 PW_GRID| Cutoff [a.u.]                                                      7.4
 PW_GRID| spherical cutoff:                                                   NO
 PW_GRID|   Bounds   1            -15      14                Points:          30
 PW_GRID|   Bounds   2            -15      14                Points:          30
 PW_GRID|   Bounds   3            -15      14                Points:          30
 PW_GRID| Volume element (a.u.^3)  0.4788         Volume (a.u.^3)     12928.8946
 PW_GRID| Grid span                                                    FULLSPACE
 PW_GRID|   Distribution                         Average         Max         Min
 PW_GRID|   G-Vectors                              562.5         600         540
 PW_GRID|   G-Rays                                  18.8          20          18
 PW_GRID|   Real Space Points                      562.5         600         450

 POISSON| Solver                                                        PERIODIC
 POISSON| Periodicity                                                        XYZ

 RS_GRID| Information for grid number                                          1
 RS_GRID|   Bounds   1            -75      74                Points:         150
 RS_GRID|   Bounds   2            -75      74                Points:         150
 RS_GRID|   Bounds   3            -75      74                Points:         150
 RS_GRID| Real space distribution over                                  6 groups
 RS_GRID| Real space distribution along direction                              2
 RS_GRID| Border size                                                         28
 RS_GRID| Real space distribution over                                  8 groups
 RS_GRID| Real space distribution along direction                              3
 RS_GRID| Border size                                                         28
 RS_GRID|   Distribution                         Average         Max         Min
 RS_GRID|   Planes                                  81.0          81          81
 RS_GRID|   Distribution                         Average         Max         Min
 RS_GRID|   Planes                                  74.8          75          74

 RS_GRID| Information for grid number                                          2
 RS_GRID|   Bounds   1            -45      44                Points:          90
 RS_GRID|   Bounds   2            -45      44                Points:          90
 RS_GRID|   Bounds   3            -45      44                Points:          90
 RS_GRID| Real space fully replicated
 RS_GRID| Group size                                                           1

 RS_GRID| Information for grid number                                          3
 RS_GRID|   Bounds   1            -27      26                Points:          54
 RS_GRID|   Bounds   2            -27      26                Points:          54
 RS_GRID|   Bounds   3            -27      26                Points:          54
 RS_GRID| Real space fully replicated
 RS_GRID| Group size                                                           1

 RS_GRID| Information for grid number                                          4
 RS_GRID|   Bounds   1            -15      14                Points:          30
 RS_GRID|   Bounds   2            -15      14                Points:          30
 RS_GRID|   Bounds   3            -15      14                Points:          30
 RS_GRID| Real space fully replicated
 RS_GRID| Group size                                                           1

 MD| Molecular Dynamics Protocol 
 MD| Ensemble Type                                                           NVT
 MD| Number of Time Steps                                                      5
 MD| Time Step [fs]                                                         0.10
 MD| Temperature [K]                                                      330.00
 MD| Temperature tolerance [K]                                              0.00
 MD| Print MD information every                                        1 step(s)
 MD| File type     Print frequency[steps]                             File names
 MD| Coordinates            1                                    water-pos-1.xyz
 MD| Velocities             1                                    water-vel-1.xyz
 MD| Energies               1                                       water-1.ener
 MD| Dump                  20                                    water-1.restart

 ROT| Rotational Analysis Info 
 ROT| Principal axes and moments of inertia in atomic units:
 ROT|                                1                 2                 3
 ROT| EIGENVALUES            0.183503093E+09   0.191206551E+09   0.197868393E+09
 ROT|      X                    -0.406514691       0.856844996       0.317115846
 ROT|      Y                    -0.670564858      -0.044065346      -0.740541029
 ROT|      Z                    -0.620555056      -0.513687550       0.592483354
 ROT| Number of Rotovibrational vectors:     6

 Calculation of degrees of freedom
                                                      Number of atoms:       192
                                 Number of Intramolecular constraints:         0
                                 Number of Intermolecular constraints:         0
                                  Invariants(translation + rotations):         3
                                                   Degrees of freedom:       573


 Restraints Information
                                  Number of Intramolecular restraints:         0
                                  Number of Intermolecular restraints:         0

 THERMOSTAT| Thermostat Info for PARTICLES
 THERMOSTAT| Type of thermostat                               Nose-Hoover-Chains
 THERMOSTAT| Nose-Hoover-Chain length                                          3
 THERMOSTAT| Nose-Hoover-Chain time constant [  fs]                      1000.00
 THERMOSTAT| Order of Yoshida integrator                                       3
 THERMOSTAT| Number of multiple time steps                                     2
 THERMOSTAT| Initial Potential Energy                                   0.000000
 THERMOSTAT| Initial Kinetic Energy                                     0.000523
 THERMOSTAT| End of Thermostat Info for PARTICLES

 ************************** Velocities initialization **************************
 Initial Temperature                                                    330.00 K
 COM velocity:           -0.000000000000     -0.000000000000     -0.000000000000
 *******************************************************************************


 Number of electrons:                                                        512
 Number of occupied orbitals:                                                256
 Number of molecular orbitals:                                               256

 Number of orbital functions:                                               1472
 Number of independent orbital functions:                                   1472

 Extrapolation method: initial_guess


 SCF WAVEFUNCTION OPTIMIZATION

  ----------------------------------- OT ---------------------------------------
  Minimizer      : DIIS                : direct inversion
                                         in the iterative subspace
                                         using   7 DIIS vectors
                                         safer DIIS on
  Preconditioner : FULL_SINGLE_INVERSE : inversion of 
                                         H + eS - 2*(Sc)(c^T*H*c+const)(Sc)^T
  Precond_solver : DEFAULT
  stepsize       :    0.08000000                  energy_gap     :    0.10000000
  eps_taylor     :   0.10000E-15                  max_taylor     :             4
  ----------------------------------- OT ---------------------------------------

  Step     Update method      Time    Convergence         Total energy    Change
  ------------------------------------------------------------------------------
     1 OT DIIS     0.80E-01    1.0     0.00000013     -1102.7787715054 -1.10E+03

  *** SCF run converged in     1 steps ***


  Electronic density on regular grids:       -512.0000000048       -0.0000000048
  Core density on regular grids:              512.0000000000       -0.0000000000
  Total charge density on r-space grids:       -0.0000000048
  Total charge density g-space grids:          -0.0000000048

  Overlap energy of the core charge distribution:               0.00000334128629
  Self energy of the core charge distribution:              -2838.21791979120962
  Core Hamiltonian energy:                                    825.77843655833317
  Hartree energy:                                            1180.87027257576710
  Exchange-correlation energy:                               -270.95575015425555
  Dispersion energy:                                           -0.25381403528434

  Total energy:                                             -1102.77877150536324

  outer SCF iter =    1 RMS gradient =   0.13E-06 energy =      -1102.7787715054
  outer SCF loop converged in   1 iterations or    1 steps


 !-----------------------------------------------------------------------------!
                     Mulliken Population Analysis

 #  Atom  Element  Kind  Atomic population                           Net charge
       1     O        1          6.176673                             -0.176673
       2     H        2          0.792305                              0.207695
       3     H        2          0.935562                              0.064438
       4     O        1          6.219711                             -0.219711
       5     H        2          0.905130                              0.094870
       6     H        2          0.828199                              0.171801
       7     O        1          6.328190                             -0.328190
       8     H        2          0.862302                              0.137698
       9     H        2          0.853459                              0.146541
      10     O        1          6.293071                             -0.293071
      11     H        2          0.824763                              0.175237
      12     H        2          0.888349                              0.111651
      13     O        1          6.254717                             -0.254717
      14     H        2          0.866685                              0.133315
      15     H        2          0.885099                              0.114901
      16     O        1          6.314360                             -0.314360
      17     H        2          0.835441                              0.164559
      18     H        2          0.849692                              0.150308
      19     O        1          6.259387                             -0.259387
      20     H        2          0.899773                              0.100227
      21     H        2          0.867088                              0.132912
      22     O        1          6.284720                             -0.284720
      23     H        2          0.857116                              0.142884
      24     H        2          0.838524                              0.161476
      25     O        1          6.343459                             -0.343459
      26     H        2          0.843329                              0.156671
      27     H        2          0.827580                              0.172420
      28     O        1          6.331924                             -0.331924
      29     H        2          0.835995                              0.164005
      30     H        2          0.807035                              0.192965
      31     O        1          6.235406                             -0.235406
      32     H        2          0.860691                              0.139309
      33     H        2          0.858995                              0.141005
      34     O        1          6.342600                             -0.342600
      35     H        2          0.847413                              0.152587
      36     H        2          0.812247                              0.187753
      37     O        1          6.401054                             -0.401054
      38     H        2          0.847986                              0.152014
      39     H        2          0.826436                              0.173564
      40     O        1          6.278706                             -0.278706
      41     H        2          0.870921                              0.129079
      42     H        2          0.851913                              0.148087
      43     O        1          6.308460                             -0.308460
      44     H        2          0.820479                              0.179521
      45     H        2          0.858408                              0.141592
      46     O        1          6.341470                             -0.341470
      47     H        2          0.842473                              0.157527
      48     H        2          0.820866                              0.179134
      49     O        1          6.344472                             -0.344472
      50     H        2          0.834642                              0.165358
      51     H        2          0.808802                              0.191198
      52     O        1          6.313476                             -0.313476
      53     H        2          0.845492                              0.154508
      54     H        2          0.871349                              0.128651
      55     O        1          6.158750                             -0.158750
      56     H        2          0.984483                              0.015517
      57     H        2          0.811745                              0.188255
      58     O        1          6.315232                             -0.315232
      59     H        2          0.826307                              0.173693
      60     H        2          0.836384                              0.163616
      61     O        1          6.291081                             -0.291081
      62     H        2          0.835444                              0.164556
      63     H        2          0.861051                              0.138949
      64     O        1          6.258618                             -0.258618
      65     H        2          0.875160                              0.124840
      66     H        2          0.853031                              0.146969
      67     O        1          6.270348                             -0.270348
      68     H        2          0.889795                              0.110205
      69     H        2          0.839852                              0.160148
      70     O        1          6.383685                             -0.383685
      71     H        2          0.805926                              0.194074
      72     H        2          0.844226                              0.155774
      73     O        1          6.295346                             -0.295346
      74     H        2          0.841578                              0.158422
      75     H        2          0.848043                              0.151957
      76     O        1          6.262360                             -0.262360
      77     H        2          0.873199                              0.126801
      78     H        2          0.841766                              0.158234
      79     O        1          6.254029                             -0.254029
      80     H        2          0.857406                              0.142594
      81     H        2          0.869494                              0.130506
      82     O        1          6.302755                             -0.302755
      83     H        2          0.861647                              0.138353
      84     H        2          0.872461                              0.127539
      85     O        1          6.328205                             -0.328205
      86     H        2          0.847116                              0.152884
      87     H        2          0.857174                              0.142826
      88     O        1          6.338724                             -0.338724
      89     H        2          0.858790                              0.141210
      90     H        2          0.853514                              0.146486
      91     O        1          6.247901                             -0.247901
      92     H        2          0.882443                              0.117557
      93     H        2          0.864672                              0.135328
      94     O        1          6.281961                             -0.281961
      95     H        2          0.883911                              0.116089
      96     H        2          0.852277                              0.147723
      97     O        1          6.361084                             -0.361084
      98     H        2          0.836776                              0.163224
      99     H        2          0.806896                              0.193104
     100     O        1          6.307268                             -0.307268
     101     H        2          0.845889                              0.154111
     102     H        2          0.869777                              0.130223
     103     O        1          6.254691                             -0.254691
     104     H        2          0.842641                              0.157359
     105     H        2          0.871274                              0.128726
     106     O        1          6.260167                             -0.260167
     107     H        2          0.881608                              0.118392
     108     H        2          0.868619                              0.131381
     109     O        1          6.317001                             -0.317001
     110     H        2          0.842726                              0.157274
     111     H        2          0.864924                              0.135076
     112     O        1          6.287252                             -0.287252
     113     H        2          0.823356                              0.176644
     114     H        2          0.848366                              0.151634
     115     O        1          6.355889                             -0.355889
     116     H        2          0.800146                              0.199854
     117     H        2          0.820521                              0.179479
     118     O        1          6.286153                             -0.286153
     119     H        2          0.849359                              0.150641
     120     H        2          0.873689                              0.126311
     121     O        1          6.352921                             -0.352921
     122     H        2          0.844287                              0.155713
     123     H        2          0.842268                              0.157732
     124     O        1          6.247795                             -0.247795
     125     H        2          0.869850                              0.130150
     126     H        2          0.874669                              0.125331
     127     O        1          6.244758                             -0.244758
     128     H        2          0.885428                              0.114572
     129     H        2          0.872552                              0.127448
     130     O        1          6.276428                             -0.276428
     131     H        2          0.872804                              0.127196
     132     H        2          0.889941                              0.110059
     133     O        1          6.326555                             -0.326555
     134     H        2          0.799049                              0.200951
     135     H        2          0.824082                              0.175918
     136     O        1          6.244084                             -0.244084
     137     H        2          0.871832                              0.128168
     138     H        2          0.847789                              0.152211
     139     O        1          6.289809                             -0.289809
     140     H        2          0.848117                              0.151883
     141     H        2          0.873887                              0.126113
     142     O        1          6.279243                             -0.279243
     143     H        2          0.792516                              0.207484
     144     H        2          0.839732                              0.160268
     145     O        1          6.274142                             -0.274142
     146     H        2          0.869552                              0.130448
     147     H        2          0.875995                              0.124005
     148     O        1          6.313429                             -0.313429
     149     H        2          0.825954                              0.174046
     150     H        2          0.850163                              0.149837
     151     O        1          6.241328                             -0.241328
     152     H        2          0.864549                              0.135451
     153     H        2          0.875344                              0.124656
     154     O        1          6.300560                             -0.300560
     155     H        2          0.841371                              0.158629
     156     H        2          0.886202                              0.113798
     157     O        1          6.285201                             -0.285201
     158     H        2          0.842558                              0.157442
     159     H        2          0.898816                              0.101184
     160     O        1          6.340791                             -0.340791
     161     H        2          0.836929                              0.163071
     162     H        2          0.830109                              0.169891
     163     O        1          6.328280                             -0.328280
     164     H        2          0.828979                              0.171021
     165     H        2          0.857659                              0.142341
     166     O        1          6.260974                             -0.260974
     167     H        2          0.861195                              0.138805
     168     H        2          0.899465                              0.100535
     169     O        1          6.305947                             -0.305947
     170     H        2          0.847908                              0.152092
     171     H        2          0.871312                              0.128688
     172     O        1          6.240112                             -0.240112
     173     H        2          0.876034                              0.123966
     174     H        2          0.850323                              0.149677
     175     O        1          6.277370                             -0.277370
     176     H        2          0.861367                              0.138633
     177     H        2          0.845241                              0.154759
     178     O        1          6.273303                             -0.273303
     179     H        2          0.898473                              0.101527
     180     H        2          0.881661                              0.118339
     181     O        1          6.283000                             -0.283000
     182     H        2          0.836555                              0.163445
     183     H        2          0.863387                              0.136613
     184     O        1          6.298691                             -0.298691
     185     H        2          0.886091                              0.113909
     186     H        2          0.838247                              0.161753
     187     O        1          6.279259                             -0.279259
     188     H        2          0.832740                              0.167260
     189     H        2          0.894596                              0.105404
     190     O        1          6.263555                             -0.263555
     191     H        2          0.882866                              0.117134
     192     H        2          0.863662                              0.136338
 # Total charge                            512.000000                 -0.000000

 !-----------------------------------------------------------------------------!

 !-----------------------------------------------------------------------------!
                           Hirshfeld Charges

  #Atom  Element  Kind  Ref Charge     Population                    Net charge
      1       O      1       6.000          7.201                        -1.201
      2       H      2       1.000          0.406                         0.594
      3       H      2       1.000          0.476                         0.524
      4       O      1       6.000          7.144                        -1.144
      5       H      2       1.000          0.449                         0.551
      6       H      2       1.000          0.411                         0.589
      7       O      1       6.000          7.127                        -1.127
      8       H      2       1.000          0.440                         0.560
      9       H      2       1.000          0.420                         0.580
     10       O      1       6.000          7.179                        -1.179
     11       H      2       1.000          0.400                         0.600
     12       H      2       1.000          0.439                         0.561
     13       O      1       6.000          7.113                        -1.113
     14       H      2       1.000          0.427                         0.573
     15       H      2       1.000          0.432                         0.568
     16       O      1       6.000          7.157                        -1.157
     17       H      2       1.000          0.425                         0.575
     18       H      2       1.000          0.414                         0.586
     19       O      1       6.000          7.147                        -1.147
     20       H      2       1.000          0.449                         0.551
     21       H      2       1.000          0.420                         0.580
     22       O      1       6.000          7.155                        -1.155
     23       H      2       1.000          0.419                         0.581
     24       H      2       1.000          0.420                         0.580
     25       O      1       6.000          7.162                        -1.162
     26       H      2       1.000          0.409                         0.591
     27       H      2       1.000          0.424                         0.576
     28       O      1       6.000          7.164                        -1.164
     29       H      2       1.000          0.418                         0.582
     30       H      2       1.000          0.406                         0.594
     31       O      1       6.000          7.152                        -1.152
     32       H      2       1.000          0.431                         0.569
     33       H      2       1.000          0.416                         0.584
     34       O      1       6.000          7.183                        -1.183
     35       H      2       1.000          0.415                         0.585
     36       H      2       1.000          0.398                         0.602
     37       O      1       6.000          7.180                        -1.180
     38       H      2       1.000          0.406                         0.594
     39       H      2       1.000          0.407                         0.593
     40       O      1       6.000          7.148                        -1.148
     41       H      2       1.000          0.434                         0.566
     42       H      2       1.000          0.415                         0.585
     43       O      1       6.000          7.132                        -1.132
     44       H      2       1.000          0.420                         0.580
     45       H      2       1.000          0.425                         0.575
     46       O      1       6.000          7.195                        -1.195
     47       H      2       1.000          0.415                         0.585
     48       H      2       1.000          0.412                         0.588
     49       O      1       6.000          7.155                        -1.155
     50       H      2       1.000          0.419                         0.581
     51       H      2       1.000          0.414                         0.586
     52       O      1       6.000          7.186                        -1.186
     53       H      2       1.000          0.408                         0.592
     54       H      2       1.000          0.406                         0.594
     55       O      1       6.000          7.151                        -1.151
     56       H      2       1.000          0.483                         0.517
     57       H      2       1.000          0.409                         0.591
     58       O      1       6.000          7.170                        -1.170
     59       H      2       1.000          0.410                         0.590
     60       H      2       1.000          0.413                         0.587
     61       O      1       6.000          7.163                        -1.163
     62       H      2       1.000          0.425                         0.575
     63       H      2       1.000          0.413                         0.587
     64       O      1       6.000          7.131                        -1.131
     65       H      2       1.000          0.440                         0.560
     66       H      2       1.000          0.414                         0.586
     67       O      1       6.000          7.174                        -1.174
     68       H      2       1.000          0.427                         0.573
     69       H      2       1.000          0.422                         0.578
     70       O      1       6.000          7.152                        -1.152
     71       H      2       1.000          0.418                         0.582
     72       H      2       1.000          0.407                         0.593
     73       O      1       6.000          7.124                        -1.124
     74       H      2       1.000          0.427                         0.573
     75       H      2       1.000          0.429                         0.571
     76       O      1       6.000          7.156                        -1.156
     77       H      2       1.000          0.434                         0.566
     78       H      2       1.000          0.426                         0.574
     79       O      1       6.000          7.141                        -1.141
     80       H      2       1.000          0.422                         0.578
     81       H      2       1.000          0.436                         0.564
     82       O      1       6.000          7.114                        -1.114
     83       H      2       1.000          0.423                         0.577
     84       H      2       1.000          0.436                         0.564
     85       O      1       6.000          7.139                        -1.139
     86       H      2       1.000          0.418                         0.582
     87       H      2       1.000          0.434                         0.566
     88       O      1       6.000          7.177                        -1.177
     89       H      2       1.000          0.413                         0.587
     90       H      2       1.000          0.402                         0.598
     91       O      1       6.000          7.147                        -1.147
     92       H      2       1.000          0.420                         0.580
     93       H      2       1.000          0.424                         0.576
     94       O      1       6.000          7.176                        -1.176
     95       H      2       1.000          0.425                         0.575
[...]
    175       O      1       6.000          7.147                        -1.147
    176       H      2       1.000          0.432                         0.568
    177       H      2       1.000          0.422                         0.578
    178       O      1       6.000          7.159                        -1.159
    179       H      2       1.000          0.423                         0.577
    180       H      2       1.000          0.440                         0.560
    181       O      1       6.000          7.137                        -1.137
    182       H      2       1.000          0.422                         0.578
    183       H      2       1.000          0.424                         0.576
    184       O      1       6.000          7.118                        -1.118
    185       H      2       1.000          0.434                         0.566
    186       H      2       1.000          0.411                         0.589
    187       O      1       6.000          7.157                        -1.157
    188       H      2       1.000          0.411                         0.589
    189       H      2       1.000          0.444                         0.556
    190       O      1       6.000          7.110                        -1.110
    191       H      2       1.000          0.440                         0.560
    192       H      2       1.000          0.432                         0.568

  Total Charge                                                            0.001
 !-----------------------------------------------------------------------------!

 ENERGY| Total FORCE_EVAL ( QS ) energy (a.u.):            -1102.804579113966383


 Centre of mass motion (COM):                            x =        0.0000000784
                                                         y =        0.0000000869
                                                         z =        0.0000002359

 *******************************************************************************
 ENSEMBLE TYPE                =                                              NVT
 STEP NUMBER                  =                                                5
 TIME [fs]                    =                                         0.500000
 CONSERVED QUANTITY [hartree] =                              -0.110247887294E+04

                                              INSTANTANEOUS             AVERAGES
 CPU TIME [s]                 =                        7.87                10.55
 ENERGY DRIFT PER ATOM [K]    =         -0.501821408551E-01  -0.241719185884E-01
 POTENTIAL ENERGY[hartree]    =         -0.110280457911E+04  -0.110279211633E+04
 KINETIC ENERGY [hartree]     =          0.325170698690E+00   0.312728430611E+00
 TEMPERATURE [K]              =                     358.397              344.683
 PRESSURE [bar]               =         -0.640993302663E+03  -0.576613972025E+03
 *******************************************************************************


 -------------------------------------------------------------------------------
 -                                                                             -
 -                                DBCSR STATISTICS                             -
 -                                                                             -
 -------------------------------------------------------------------------------
 COUNTER                                    TOTAL       BLAS       SMM       ACC
 flops    32 x    32 x   112             99090432       0.0%    100.0%      0.0%
 flops    32 x    32 x   128            113246208       0.0%    100.0%      0.0%
 flops    32 x    32 x   104            138018816       0.0%    100.0%      0.0%
 flops     5 x    32 x    32            566231040       0.0%    100.0%      0.0%
 flops    13 x    32 x    32            736100352       0.0%    100.0%      0.0%
 flops   360 x    32 x   112           1899233280       0.0%    100.0%      0.0%
 flops   370 x    32 x   112           1951989760       0.0%    100.0%      0.0%
 flops   360 x    32 x   128           2170552320       0.0%    100.0%      0.0%
 flops   370 x    32 x   128           2230845440       0.0%    100.0%      0.0%
 flops   360 x    32 x   104           2645360640       0.0%    100.0%      0.0%
 flops   370 x    32 x   104           2718842880       0.0%    100.0%      0.0%
 flops    64 x    32 x    32           3053453312       0.0%    100.0%      0.0%
 flops   371 x    32 x   112           3914530816       0.0%    100.0%      0.0%
 flops   371 x    32 x   128           4473749504       0.0%    100.0%      0.0%
 flops    64 x    32 x   112           4521459712       0.0%    100.0%      0.0%
 flops    64 x    32 x   128           5167382528       0.0%    100.0%      0.0%
 flops   371 x    32 x   104           5452382208       0.0%    100.0%      0.0%
 flops     5 x     5 x    32           6129254400       0.0%    100.0%      0.0%
 flops    64 x    32 x   104           6297747456       0.0%    100.0%      0.0%
 flops    13 x     5 x    32           7906263040       0.0%    100.0%      0.0%
 flops     5 x    13 x    32           7906263040       0.0%    100.0%      0.0%
 flops   360 x    32 x    32           8870952960       0.0%    100.0%      0.0%
 flops   370 x    32 x    32           9117368320       0.0%    100.0%      0.0%
 flops    13 x    13 x    32          10434238464       0.0%    100.0%      0.0%
 flops   371 x    32 x    32          18284019712       0.0%    100.0%      0.0%
 flops     5 x    32 x     5          24956108800       0.0%    100.0%      0.0%
 flops    13 x    32 x     5          32442941440       0.0%    100.0%      0.0%
 flops     5 x    32 x    13          32442941440       0.0%    100.0%      0.0%
 flops    13 x    32 x    13          42155230208       0.0%    100.0%      0.0%
 flops inhomo. stacks                 41195520000     100.0%      0.0%      0.0%
 flops total                       289.991319E+09      14.2%     85.8%      0.0%
 flops max/rank                      8.831437E+09      14.7%     85.3%      0.0%
 matmuls inhomo. stacks                     33080     100.0%      0.0%      0.0%
 matmuls total                           43922960       0.1%     99.9%      0.0%
 number of processed stacks                425424       7.7%     92.3%      0.0%
 average stack size                                     1.0     111.8       0.0
 marketing flops                   321.063551E+09
 -------------------------------------------------------------------------------
 # multiplications                            680
 max memory usage/rank             174.190592E+06
 # max total images/rank                        3
 # max 3D layers                                1
 # MPI messages exchanged                  652800
 MPI messages size (bytes):
  total size                        49.757667E+09
  min size                           0.000000E+00
  max size                         442.232000E+03
  average size                      76.221914E+03
 MPI breakdown and total messages size (bytes):
             size <=      128              193184                        0
       128 < size <=     8192               54864                449445888
      8192 < size <=    32768              111136               2864453632
     32768 < size <=   131072              206496              14985586688
    131072 < size <=  4194304               87120              31458164144
   4194304 < size <= 16777216                   0                        0
  16777216 < size                               0                        0
 -------------------------------------------------------------------------------

 *** WARNING in dbcsr_mm.F:295 :: Using a non-square number of MPI ranks ***
 *** might lead to poor performance. Used ranks: 48 Suggested: 49 100    ***

 -------------------------------------------------------------------------------
 -                                                                             -
 -                      DBCSR MESSAGE PASSING PERFORMANCE                      -
 -                                                                             -
 -------------------------------------------------------------------------------
 ROUTINE             CALLS      AVE VOLUME [Bytes]
 MP_Group               58
 MP_Bcast               30                     12.
 MP_Allreduce         3642                      8.
 MP_Alltoall          3010                  22289.
 MP_Wait             54400
 MP_ISend            31428                  37168.
 MP_IRecv            31120                  36697.
 MP_Memory           45548
 -------------------------------------------------------------------------------

 MEMORY| Estimated peak process memory [MiB]                                 167

 -------------------------------------------------------------------------------
 ----                             MULTIGRID INFO                            ----
 -------------------------------------------------------------------------------
 count for grid        1:         785055          cutoff [a.u.]          200.00
 count for grid        2:         604517          cutoff [a.u.]           66.67
 count for grid        3:         830414          cutoff [a.u.]           22.22
 count for grid        4:         309349          cutoff [a.u.]            7.41
 total gridlevel count  :        2529335

 -------------------------------------------------------------------------------
 -                                                                             -
 -                         MESSAGE PASSING PERFORMANCE                         -
 -                                                                             -
 -------------------------------------------------------------------------------

 ROUTINE             CALLS      AVE VOLUME [Bytes]
 MP_Group                4
 MP_Bcast             1724                 216811.
 MP_Allreduce         3332                    949.
 MP_Sync                 4
 MP_Alltoall          1057                3329229.
 MP_SendRecv          1128                   1398.
 MP_ISendRecv        12972                  60352.
 MP_Wait             20048
 MP_ISend             6496                 129911.
 MP_IRecv             6496                 129911.
 MP_Recv                66                 259072.
 -------------------------------------------------------------------------------


 -------------------------------------------------------------------------------
 -                                                                             -
 -                           R E F E R E N C E S                               -
 -                                                                             -
 -------------------------------------------------------------------------------
 
 CP2K version 7.1, the CP2K developers group (2019).
 CP2K is freely available from https://www.cp2k.org/ .

 Schuett, Ole; Messmer, Peter; Hutter, Juerg; VandeVondele, Joost. 
 Electronic Structure Calculations on Graphics Processing Units, John
 Wiley & Sons, Ltd, 173-190 (2016). 
 GPU-Accelerated Sparse Matrix-Matrix Multiplication for
 Linear Scaling Density Functional Theory.
 https://dx.doi.org/10.1002/9781118670712.ch8

 Borstnik, U; VandeVondele, J; Weber, V; Hutter, J. 
 PARALLEL COMPUTING, 40 (5-6), 47-58 (2014). 
 Sparse matrix multiplication: The distributed block-compressed sparse
 row library.
 https://dx.doi.org/10.1016/j.parco.2014.03.012

 Hutter, J; Iannuzzi, M; Schiffmann, F; VandeVondele, J. 
 WIREs Comput Mol Sci., 4 (1), 15-25 (2014). 
 CP2K: atomistic simulations of condensed matter systems.
 https://dx.doi.org/10.1002/wcms.1159

 Marek, A; Blum, V; Johanni, R; Havu, V; Lang, B; Auckenthaler, T;
 Heinecke, A; Bungartz, H; Lederer, H. 
 Journal of Physics: Condensed Matter, 26 (21), (2014). 
 The ELPA library: scalable parallel eigenvalue solutions for
 electronic structure
 theory and computational science.
 https://dx.doi.org/10.1088/0953-8984/26/21/213201

 Grimme, S; Ehrlich, S; Goerigk, L. 
 JOURNAL OF COMPUTATIONAL CHEMISTRY, 32, 1456 (2011). 
 Effect of the damping function in dispersion corrected density functional theory.
 https://dx.doi.org/10.1002/jcc.21759

 Grimme, S; Antony, J; Ehrlich, S; Krieg, H. 
 JOURNAL OF CHEMICAL PHYSICS, 132 (15), 154104 (2010). 
 A consistent and accurate ab initio parametrization of density
 functional dispersion correction (DFT-D) for the 94 elements H-Pu.
 https://dx.doi.org/10.1063/1.3382344

 VandeVondele, J; Hutter, J. 
 JOURNAL OF CHEMICAL PHYSICS, 127 (11), 114105 (2007). 
 Gaussian basis sets for accurate calculations on molecular systems in
 gas and condensed phases.
 https://dx.doi.org/10.1063/1.2770708

 Krack, M. 
 THEORETICAL CHEMISTRY ACCOUNTS, 114 (1-3), 145-152 (2005). 
 Pseudopotentials for H to Kr optimized for gradient-corrected
 exchange-correlation functionals.
 https://dx.doi.org/10.1007/s00214-005-0655-y

 VandeVondele, J; Krack, M; Mohamed, F; Parrinello, M; Chassaing, T;
 Hutter, J. COMPUTER PHYSICS COMMUNICATIONS, 167 (2), 103-128 (2005). 
 QUICKSTEP: Fast and accurate density functional calculations using a
 mixed Gaussian and plane waves approach.
 https://dx.doi.org/10.1016/j.cpc.2004.12.014

 Frigo, M; Johnson, SG. 
 PROCEEDINGS OF THE IEEE, 93 (2), 216-231 (2005). 
 The design and implementation of FFTW3.
 https://dx.doi.org/10.1109/JPROC.2004.840301

 Kolafa, J. 
 JOURNAL OF COMPUTATIONAL CHEMISTRY, 25 (3), 335-342 (2004). 
 Time-reversible always stable predictor-corrector method for molecular dynamics of polarizable molecules.
 https://dx.doi.org/10.1002/jcc.10385

 VandeVondele, J; Hutter, J. 
 JOURNAL OF CHEMICAL PHYSICS, 118 (10), 4365-4369 (2003). 
 An efficient orbital transformation method for electronic structure
 calculations.
 https://dx.doi.org/10.1063/1.1543154

 Hartwigsen, C; Goedecker, S; Hutter, J. 
 PHYSICAL REVIEW B, 58 (7), 3641-3662 (1998). 
 Relativistic separable dual-space Gaussian pseudopotentials from H to Rn.
 https://dx.doi.org/10.1103/PhysRevB.58.3641

 Lippert, G; Hutter, J; Parrinello, M. 
 MOLECULAR PHYSICS, 92 (3), 477-487 (1997). 
 A hybrid Gaussian and plane wave density functional scheme.
 https://dx.doi.org/10.1080/002689797170220

 Perdew, JP; Burke, K; Ernzerhof, M. 
 PHYSICAL REVIEW LETTERS, 77 (18), 3865-3868 (1996). 
 Generalized gradient approximation made simple.
 https://dx.doi.org/10.1103/PhysRevLett.77.3865

 Goedecker, S; Teter, M; Hutter, J. 
 PHYSICAL REVIEW B, 54 (3), 1703-1710 (1996). 
 Separable dual-space Gaussian pseudopotentials.
 https://dx.doi.org/10.1103/PhysRevB.54.1703

 NOSE, S. JOURNAL OF CHEMICAL PHYSICS, 81 (1), 511-519 (1984). 
 A UNIFIED FORMULATION OF THE CONSTANT TEMPERATURE MOLECULAR-DYNAMICS
 METHODS.
 https://dx.doi.org/10.1063/1.447334

 NOSE, S. MOLECULAR PHYSICS, 52 (2), 255-268 (1984). 
 A MOLECULAR-DYNAMICS METHOD FOR SIMULATIONS IN THE CANONICAL ENSEMBLE.
 https://dx.doi.org/10.1080/00268978400101201


 -------------------------------------------------------------------------------
 -                                                                             -
 -                                T I M I N G                                  -
 -                                                                             -
 -------------------------------------------------------------------------------
 SUBROUTINE                       CALLS  ASD         SELF TIME        TOTAL TIME
                                MAXIMUM       AVERAGE  MAXIMUM  AVERAGE  MAXIMUM
 CP2K                                 1  1.0    0.090    0.248   53.956   53.971
 qs_mol_dyn_low                       1  2.0    0.024    0.072   52.902   52.905
 qs_forces                            6  3.8    0.008    0.048   52.630   52.648
 velocity_verlet                      5  3.0    0.002    0.005   48.524   48.530
 qs_energies                          6  4.8    0.008    0.034   45.484   45.513
 scf_env_do_scf                       6  5.8    0.001    0.005   40.357   40.359
 scf_env_do_scf_inner_loop           40  7.0    0.002    0.007   36.246   36.280
 rebuild_ks_matrix                   46  8.6    0.000    0.002   26.599   26.617
 qs_ks_build_kohn_sham_matrix        46  9.6    0.007    0.012   26.599   26.617
 qs_ks_update_qs_env                 46  8.0    0.000    0.000   21.228   21.245
 qs_rho_update_rho                   46  8.1    0.000    0.002   19.280   19.288
 calculate_rho_elec                  46  9.1   15.951   16.370   19.279   19.288
 sum_up_and_integrate                46 10.6    0.014    0.018   19.019   19.028
 integrate_v_rspace                  46 11.6   15.875   16.213   19.005   19.016
 pw_transfer                        880 12.3    0.038    0.045    6.336    6.463
 fft_wrap_pw1pw2                    788 13.4    0.007    0.008    6.259    6.389
 qs_vxc_create                       46 10.6    0.002    0.006    6.285    6.334
 xc_vxc_pw_create                    46 11.6    0.190    0.226    6.283    6.333
 fft_wrap_pw1pw2_200                512 14.4    0.355    0.382    5.963    6.107
 fft3d_ps                           788 15.4    2.600    2.697    5.278    5.454
 qs_ks_update_qs_env_forces           6  4.8    0.000    0.000    5.387    5.389
 rs_pw_transfer                     392 12.1    0.005    0.007    4.056    4.686
 xc_rho_set_and_dset_create          46 12.6    0.028    0.031    3.605    4.138
 init_scf_loop                        6  6.8    0.001    0.004    4.058    4.069
 density_rs2pw                       46 10.1    0.002    0.002    2.839    3.345
 init_scf_run                         6  5.8    0.000    0.001    3.164    3.167
 scf_env_initial_rho_setup            6  6.8    0.000    0.003    3.164    3.167
 potential_pw2rs                     46 12.6    0.003    0.003    2.387    2.393
 mp_alltoall_z22v                   788 17.4    2.208    2.373    2.208    2.373
 xc_functional_eval                  46 13.6    0.000    0.001    1.802    2.339
 pbe_lda_eval                        46 14.6    1.802    2.338    1.802    2.338
 rs_pw_transfer_RS2PW_200            58 11.7    0.545    0.636    1.649    2.273
 wfi_extrapolate                      6  7.8    0.001    0.006    2.244    2.248
 dbcsr_multiply_generic             680 12.6    0.031    0.043    2.031    2.111
 mp_waitany                        6496 13.7    1.410    2.088    1.410    2.088
 build_core_hamiltonian_matrix_       6  4.8    0.000    0.000    1.542    1.727
 rs_pw_transfer_PW2RS_200            58 13.7    0.877    0.963    1.530    1.587
 qs_scf_new_mos                      40  8.0    0.000    0.000    1.530    1.567
 qs_scf_loop_do_ot                   40  9.0    0.000    0.001    1.530    1.567
 yz_to_x                            328 16.0    0.138    0.185    1.387    1.519
 qs_energies_init_hamiltonians        6  5.8    0.002    0.015    1.455    1.482
 ot_scf_mini                         40 10.0    0.001    0.001    1.401    1.426
 x_to_yz                            368 16.8    0.275    0.334    1.231    1.379
 multiply_cannon                    680 13.6    0.074    0.089    1.154    1.268
 mp_waitall_1                     67952 15.7    0.912    1.264    0.912    1.264
 rs_distribute_matrix                98 11.2    0.072    0.118    0.831    1.124
 mp_alltoall_d11v                   860 13.4    0.778    1.104    0.778    1.104
 -------------------------------------------------------------------------------

 The number of warnings for this run is : 1
 
 -------------------------------------------------------------------------------
  **** **** ******  **  PROGRAM ENDED AT                 2022-08-29 17:35:35.919
 ***** ** ***  *** **   PROGRAM RAN ON                                   c51-003
 **    ****   ******    PROGRAM RAN BY                                  ybzhuang
 ***** **    ** ** **   PROGRAM PROCESS ID                                 17458
  **** **  *******  **  PROGRAM STOPPED IN /data/ybzhuang/workdirs/water-ml/aimd
