     192
 i =        0, time =        0.000, E =     -1102.7787715053
  O         0.0159585466        0.0145174331       -0.0249327643
  H         0.0018191328        0.0080189650        0.0008119366
  H        -0.0539539254        0.0368213085        0.1732893871
  O         0.0913949795       -0.0504788718        0.0125627048
  H        -0.0878110752        0.0607680930       -0.0172620169
  H        -0.0083099648       -0.0062475611        0.0109812801
  O         0.0325086084       -0.0238847790       -0.0141949897
  H        -0.0360132498        0.0276187276        0.0222409916
  H        -0.0024714053       -0.0129168759       -0.0076415183
  O         0.0004528731       -0.0161047123        0.0063821170
  H        -0.0016290583        0.0005569525       -0.0064858827
  H        -0.0155719566        0.0285026309        0.0011785147
  O         0.0007608853       -0.0101883001       -0.0023897536
  H        -0.0040078532       -0.0123583162       -0.0043252667
  H        -0.0011611790        0.0198077217       -0.0062382909
  O         0.0015023994        0.0059713395       -0.0246611629
  H        -0.0093492985       -0.0138453847        0.0199880240
  H         0.0149698823        0.0069871258        0.0025690300
  O        -0.0193823209        0.0324184033        0.0282971659
  H         0.0134215437       -0.0016314375       -0.0256424882
  H         0.0029080561       -0.0267445479       -0.0006078823
  O        -0.0060449865        0.0094568979       -0.0038289335
  H         0.0065856471       -0.0058941822        0.0068089389
  H         0.0046763428        0.0014308120        0.0004695289
  O         0.0277480006        0.0102118352       -0.0129495561
  H         0.0145633065       -0.0329160988       -0.0152345886
  H        -0.0421807727        0.0031194603        0.0288052336
  O         0.0158922622        0.0087287102       -0.0214189531
  H         0.0230070939       -0.0161523920        0.0037788546
  H        -0.0357300314        0.0238239798        0.0101058752
  O        -0.0320247637       -0.0424392109       -0.0178618984
  H         0.0270875685        0.0417892137       -0.0001405140
  H         0.0073198292        0.0093454622        0.0148261662
  O         0.0041462397       -0.0112165377        0.0022828030
  H         0.0069126210       -0.0166054980        0.0114153742
  H        -0.0158167754        0.0258576155       -0.0048484545
  O         0.0131706698       -0.0419679002        0.0222581573
  H         0.0281402248        0.0168892410        0.0192154128
  H        -0.0419516892        0.0360911992       -0.0374459829
  O         0.0081370118        0.0290684152       -0.0276189884
  H        -0.0125546171       -0.0009137357        0.0026628599
  H         0.0099994104       -0.0330029007        0.0142327187
  O         0.0448278865        0.0220301376        0.0039370564
  H        -0.0334936062       -0.0261761305       -0.0053341777
  H        -0.0100903828        0.0010680417        0.0083836188
  O         0.0133845919        0.0281423117        0.0055138379
  H         0.0000853210       -0.0019677021       -0.0047106024
  H        -0.0149112095       -0.0162899403        0.0008655189
  O         0.0291194190       -0.0486108992       -0.0261415944
  H        -0.0189829673        0.0057500892       -0.0011010301
  H        -0.0120919827        0.0395031739        0.0358280256
  O         0.0358232523        0.0223757684        0.0317725478
  H        -0.0124591154       -0.0314600706       -0.0174884649
  H        -0.0201982463        0.0088583765       -0.0115466172
  O        -0.0215451340        0.0086296801       -0.0018360034
  H         0.0885283980       -0.0782883734       -0.1768561743
  H         0.0041237563        0.0002440048        0.0149603229
  O        -0.0059999820       -0.0047256630       -0.0045323948
  H         0.0099057458       -0.0018814815        0.0009614220
  H        -0.0023897830        0.0070693811       -0.0047490576
  O        -0.0246710768        0.0053889169        0.0198762285
  H        -0.0009850542        0.0059770680       -0.0051382784
  H         0.0156359376       -0.0125770073       -0.0100570072
  O         0.0229810413       -0.0100230174        0.0204445561
  H        -0.0231068475        0.0113085122       -0.0479007762
  H         0.0052431160       -0.0039266181        0.0276412996
  O        -0.0311910872       -0.0009844459        0.0640193347
  H        -0.0099022247       -0.0134793637       -0.0401648929
  H         0.0238272964        0.0082394118       -0.0132295055
  O        -0.0068300116       -0.0520301859       -0.0081688387
  H         0.0079134148        0.0648069962        0.0091027224
  H         0.0071170834       -0.0074558335       -0.0043220611
  O         0.0341873745        0.0069336278       -0.0370986940
  H        -0.0060797965        0.0000047739        0.0162497265
  H        -0.0238171986       -0.0170992322        0.0166481745
  O        -0.0042145221        0.0138549496       -0.0332779450
  H         0.0135702305        0.0081718075        0.0255240839
  H        -0.0077393458       -0.0133844731        0.0145835093
  O         0.0011261739       -0.0270647406       -0.0028328475
  H        -0.0033495364       -0.0051823040        0.0085234666
  H         0.0020269908        0.0330907727        0.0030998534
  O         0.0207165324       -0.0015045557       -0.0261364439
  H        -0.0116988144        0.0171994798        0.0185543897
  H        -0.0096514045       -0.0103721780        0.0100711053
  O         0.0141327437        0.0122597177        0.0452416431
  H         0.0028014340       -0.0096041868       -0.0423667830
  H        -0.0135510656       -0.0048700180       -0.0036987891
  O        -0.0064343092        0.0062186307        0.0073857900
  H        -0.0012351617        0.0117142961        0.0106220470
  H         0.0183111265       -0.0136928902       -0.0142826019
  O        -0.0281979860        0.0191204138       -0.0545237752
  H         0.0174593319       -0.0121426469        0.0421360533
  H         0.0068007888       -0.0023317273        0.0122507456
  O        -0.0438951054       -0.0323011239       -0.0048856948
  H         0.0284432238        0.0146609633        0.0048059311
  H         0.0126962843        0.0104582121       -0.0027432146
  O         0.0254327547       -0.0076257935        0.0297798161
  H        -0.0091549611        0.0165891771        0.0097518846
  H        -0.0027994939       -0.0097716949       -0.0449279473
  O         0.0215089854        0.0070996943       -0.0147471928
  H        -0.0134465962       -0.0085456203        0.0156874572
  H        -0.0081694324       -0.0002514897       -0.0018430378
  O        -0.0360497854       -0.0282002449       -0.0196679870
  H         0.0217711283        0.0382790009       -0.0041008299
  H         0.0029332111        0.0195430744        0.0264830414
  O         0.0114538808       -0.0169754654       -0.0107197337
  H        -0.0230403469        0.0345011232        0.0096823969
  H         0.0144181494       -0.0183839872       -0.0022584145
  O        -0.0074603029       -0.0437646034       -0.0256398413
  H         0.0084926203        0.0271737980        0.0379705179
  H        -0.0026755531        0.0145404925       -0.0084478695
  O         0.0207101276        0.0162319778       -0.0047100163
  H        -0.0315293011        0.0028770744       -0.0108792138
  H         0.0189630453       -0.0130725011        0.0032380376
  O         0.0386926407       -0.0520026301       -0.0104932673
  H        -0.0430599328       -0.0041234255        0.0061097957
  H         0.0077029185        0.0465373609       -0.0016215015
  O         0.0041336866       -0.0338173141        0.0169772981
  H         0.0010821827       -0.0041485119       -0.0117709424
  H        -0.0020477968        0.0353504932       -0.0048334422
  O         0.0496946643       -0.0190159127        0.0094072850
  H        -0.0262086870       -0.0000996809       -0.0055247011
  H        -0.0296484604        0.0128745883       -0.0058604532
  O         0.0386384087        0.0099847387       -0.0248619357
  H        -0.0088215609       -0.0034802245        0.0238260712
  H        -0.0443411386       -0.0095609287        0.0056540972
  O         0.0218310789       -0.0017196613        0.0363425444
  H        -0.0218598039        0.0031822948       -0.0290893382
  H         0.0030091196       -0.0027147960       -0.0023289086
  O        -0.0010444279        0.0026400857       -0.0034115258
  H        -0.0051513977        0.0080046258       -0.0078135023
  H         0.0090949449        0.0048281066        0.0114481773
  O         0.0017454083       -0.0125418485        0.0586070602
  H         0.0151824320        0.0176589165       -0.0493116302
  H        -0.0152393725       -0.0131001322       -0.0092256787
  O        -0.0400312862        0.0058315645        0.0091731111
  H         0.0180347690        0.0085217065       -0.0006082307
  H         0.0155518317       -0.0100697219       -0.0145077437
  O         0.0048496807       -0.0051067403        0.0026505510
  H        -0.0058154555        0.0045595371       -0.0130559611
  H        -0.0064356520        0.0058031707        0.0085599547
  O         0.0218359262       -0.0125716699       -0.0276078966
  H        -0.0280596652        0.0220405480        0.0286064813
  H        -0.0043454123       -0.0179414191       -0.0026004129
  O        -0.0021246753       -0.0105174181       -0.0034462769
  H         0.0011871218       -0.0083945866        0.0029012979
  H         0.0037127066        0.0194965177        0.0006120096
  O         0.0177500752        0.0522271306        0.0371326122
  H        -0.0075010800       -0.0336853395       -0.0241640531
  H        -0.0111528192       -0.0212568218       -0.0022654662
  O         0.0113337647        0.0233691973        0.0266492461
  H        -0.0137710425        0.0134645509        0.0073359393
  H         0.0012481787       -0.0216219445       -0.0409138952
  O         0.0445614158       -0.0210130928        0.0405567200
  H        -0.0058622822       -0.0053494034       -0.0163394198
  H        -0.0313032641        0.0241953634       -0.0226277429
  O         0.0555187503       -0.0495917069        0.0506360497
  H        -0.0109081767       -0.0142505101       -0.0118313962
  H        -0.0401785994        0.0592952961       -0.0322058091
  O        -0.0113981958       -0.0234381184        0.0155210275
  H        -0.0140687540        0.0247182543       -0.0104224800
  H         0.0177401656        0.0034386417       -0.0064903154
  O        -0.0233055228       -0.0119041308        0.0019147350
  H         0.0092445245        0.0164225946        0.0052550289
  H         0.0131977877        0.0014818826       -0.0045602019
  O         0.0149208761       -0.0358059301        0.0234866195
  H        -0.0042414075        0.0023096044       -0.0106585729
  H        -0.0060979260        0.0385220198       -0.0098371279
  O        -0.0010037550       -0.0163995095        0.0157614951
  H         0.0020628521       -0.0009018127        0.0009805985
  H        -0.0027561101        0.0104641706        0.0011661958
  O        -0.0113947490        0.0331914232       -0.0234446456
  H         0.0104383551       -0.0476244338       -0.0064788719
  H        -0.0029995560        0.0043472670        0.0198696177
  O         0.0045939247       -0.0080961111       -0.0206389028
  H         0.0013870638       -0.0082076045        0.0064684135
  H        -0.0008282383        0.0135877993        0.0092893535
  O         0.0161362467       -0.0136167762        0.0171400929
  H        -0.0095972765        0.0084205838       -0.0062948819
  H         0.0020073682       -0.0060072206        0.0067529141
  O        -0.0048694254        0.0035470394       -0.0003127727
  H         0.0029712732       -0.0085437349        0.0005092880
  H         0.0022776381       -0.0034056387       -0.0033236845
  O        -0.0474623131       -0.0418411463       -0.0089045896
  H         0.0302116634        0.0102596392        0.0186569247
  H         0.0160324045        0.0318954235       -0.0153556112
  O        -0.0080682983        0.0092422844        0.0102623074
  H         0.0105687464       -0.0016332159       -0.0079057847
  H        -0.0060851212       -0.0153396155        0.0029657890
  O         0.0030020585       -0.0072931926        0.0112055301
  H        -0.0089176661        0.0043898730       -0.0042106050
  H         0.0009215941        0.0045649019       -0.0075932280
     192
 i =        1, time =        0.100, E =     -1102.7816973794
  O         0.0160835337        0.0143808404       -0.0249106862
  H         0.0018376027        0.0077992921        0.0011105695
  H        -0.0536496924        0.0362537520        0.1725418412
  O         0.0925167685       -0.0519901077        0.0144054887
  H        -0.0891163728        0.0618034223       -0.0176594567
  H        -0.0078466445       -0.0056445605        0.0095856536
  O         0.0325595760       -0.0218797995       -0.0130430024
  H        -0.0350882109        0.0270288348        0.0220228708
  H        -0.0032612326       -0.0144781969       -0.0085817824
  O         0.0000779808       -0.0158839867        0.0067121870
  H        -0.0015521007        0.0006923049       -0.0069246280
  H        -0.0153606231        0.0281968340        0.0011621390
  O         0.0014901888       -0.0089742052       -0.0037893416
  H        -0.0043972747       -0.0140555269       -0.0030420302
  H        -0.0013840917        0.0202988586       -0.0060400530
  O         0.0019884672        0.0065769961       -0.0247086480
  H        -0.0093558521       -0.0140616422        0.0202526219
  H         0.0144521391        0.0065806692        0.0024125591
  O        -0.0203058453        0.0311829904        0.0299701004
  H         0.0143747701       -0.0002817208       -0.0273646912
  H         0.0029709182       -0.0268869179       -0.0005862992
  O        -0.0088152916        0.0114693215       -0.0023747575
  H         0.0075911085       -0.0061619078        0.0049561683
  H         0.0063125985       -0.0002611435        0.0008236336
  O         0.0277400683        0.0087519879       -0.0138483218
  H         0.0144487023       -0.0315823806       -0.0147297820
  H        -0.0422530807        0.0031829578        0.0289320749
  O         0.0156628028        0.0091267307       -0.0214845700
  H         0.0230984933       -0.0163989026        0.0039048922
  H        -0.0355545497        0.0236772805        0.0100354355
  O        -0.0297681034       -0.0387593640       -0.0196374310
  H         0.0248663900        0.0383574982        0.0004783607
  H         0.0072139115        0.0090521296        0.0158286743
  O         0.0023951196       -0.0107783657        0.0037056777
  H         0.0076857904       -0.0156861083        0.0098410665
  H        -0.0148934247        0.0245679509       -0.0047833094
  O         0.0126953008       -0.0424061984        0.0217472232
  H         0.0281548548        0.0171638837        0.0193708005
  H        -0.0414734435        0.0360500295       -0.0372458388
  O         0.0068900541        0.0279610899       -0.0270638956
  H        -0.0111607742       -0.0000618022        0.0022542377
  H         0.0100024835       -0.0326683520        0.0140884705
  O         0.0436747226        0.0200843943        0.0030581259
  H        -0.0319807257       -0.0246010284       -0.0047835340
  H        -0.0103634645        0.0014468470        0.0087415040
  O         0.0137080831        0.0276520806        0.0068016192
  H        -0.0004825179       -0.0021458344       -0.0053612027
  H        -0.0146560153       -0.0155997374        0.0004428067
  O         0.0295852949       -0.0489528726       -0.0258566315
  H        -0.0192366100        0.0059869576       -0.0011377544
  H        -0.0123936988        0.0395867076        0.0355431986
  O         0.0336245903        0.0194082332        0.0296282271
  H        -0.0124676158       -0.0308360114       -0.0173716129
  H        -0.0181120191        0.0110145831       -0.0095028354
  O        -0.0179104746        0.0076903619       -0.0022511527
  H         0.0872585281       -0.0771288272       -0.1757394898
  H         0.0011072281        0.0008505907        0.0147670214
  O        -0.0067153822       -0.0040183940       -0.0045971472
  H         0.0098098428       -0.0018484092        0.0010048656
  H        -0.0016301619        0.0063244276       -0.0047217927
  O        -0.0245888696        0.0052189638        0.0192201922
  H        -0.0007465833        0.0061501072       -0.0045931965
  H         0.0153456505       -0.0124469887       -0.0099805994
  O         0.0247897581       -0.0110164866        0.0242722711
  H        -0.0245246111        0.0134951205       -0.0505706736
  H         0.0049673346       -0.0051736938        0.0264968398
  O        -0.0295831119       -0.0010014589        0.0626531774
  H        -0.0096463555       -0.0131562315       -0.0396265121
  H         0.0220425381        0.0080042279       -0.0122926150
  O        -0.0057190735       -0.0539965605       -0.0086505241
  H         0.0082474282        0.0656381215        0.0094142415
  H         0.0057600173       -0.0063563387       -0.0043708444
  O         0.0326850499        0.0058919985       -0.0374040996
  H        -0.0049753485        0.0005704277        0.0169214557
  H        -0.0233323950       -0.0167837875        0.0162119805
  O        -0.0050970487        0.0138503330       -0.0359463769
  H         0.0147662389        0.0091773301        0.0268167420
  H        -0.0080214233       -0.0143691766        0.0159915742
  O         0.0018557433       -0.0281204988       -0.0008488133
  H        -0.0041074966       -0.0042369364        0.0065216253
  H         0.0020101299        0.0330102269        0.0031522980
  O         0.0195688934       -0.0009847803       -0.0244596879
  H        -0.0107624436        0.0163712415        0.0171440695
  H        -0.0094690061       -0.0100580761        0.0098457660
  O         0.0145319713        0.0125718268        0.0452454020
  H         0.0026824483       -0.0097428593       -0.0422014667
  H        -0.0138934270       -0.0050577638       -0.0037904293
  O        -0.0069043174        0.0062858158        0.0071781131
  H        -0.0009303314        0.0115788277        0.0106591935
  H         0.0185880799       -0.0137043875       -0.0140574312
  O        -0.0280902944        0.0204314225       -0.0579560767
  H         0.0174490360       -0.0133827850        0.0453542103
  H         0.0067089729       -0.0024249219        0.0124660876
  O        -0.0425326581       -0.0304239648       -0.0053344075
  H         0.0275175861        0.0143335888        0.0045144663
  H         0.0123350465        0.0091042836       -0.0019794851
  O         0.0250699071       -0.0074646009        0.0302198451
  H        -0.0088048874        0.0162882300        0.0094238560
  H        -0.0028419984       -0.0095757182       -0.0448913814
  O         0.0225253356        0.0075988644       -0.0149035184
  H        -0.0144938816       -0.0089584269        0.0160796999
  H        -0.0081954593       -0.0002003031       -0.0019649352
  O        -0.0332323471       -0.0235468886       -0.0174734895
  H         0.0185874918        0.0345360983       -0.0043925177
  H         0.0032398696        0.0187181660        0.0244783248
  O         0.0078881821       -0.0139504785       -0.0105673226
  H        -0.0192435971        0.0318556383        0.0100861399
  H         0.0141492549       -0.0188680846       -0.0026700645
  O        -0.0072633103       -0.0424115954       -0.0267013003
  H         0.0085328519        0.0280467835        0.0389247827
  H        -0.0028846778        0.0123713658       -0.0082743131
  O         0.0206158086        0.0185883350       -0.0064919815
  H        -0.0327758906        0.0029245982       -0.0114119997
  H         0.0204334939       -0.0155479397        0.0055778428
  O         0.0391017056       -0.0511840523       -0.0102071118
  H        -0.0429204858       -0.0037971136        0.0061634944
  H         0.0071412938        0.0454722723       -0.0017298370
  O         0.0041822397       -0.0355749323        0.0181018236
  H         0.0010894080       -0.0041133198       -0.0120806681
  H        -0.0020646031        0.0370389820       -0.0056867751
  O         0.0495682821       -0.0188952721        0.0090699826
  H        -0.0260875428        0.0000722396       -0.0051014352
  H        -0.0296448714        0.0125236991       -0.0058708263
  O         0.0379602402        0.0092493045       -0.0219438695
  H        -0.0089576379       -0.0031169860        0.0211144570
  H        -0.0434086439       -0.0091282824        0.0054945935
  O         0.0218586705       -0.0017829142        0.0375220300
  H        -0.0221897066        0.0032874827       -0.0290091986
  H         0.0032796058       -0.0026774864       -0.0035596457
  O         0.0011105488        0.0038495845       -0.0021998786
  H        -0.0052880086        0.0081628858       -0.0082313255
  H         0.0071004771        0.0035325149        0.0106240277
  O         0.0009808988       -0.0133412447        0.0581789436
  H         0.0150053866        0.0175087128       -0.0489807032
  H        -0.0143157643       -0.0121601385       -0.0090820560
  O        -0.0384789215        0.0068477980        0.0099339851
  H         0.0162786032        0.0074983751       -0.0012152580
  H         0.0157013495       -0.0102111435       -0.0146515995
  O         0.0047259856       -0.0056501363        0.0043119693
  H        -0.0062875329        0.0055557468       -0.0146548479
  H        -0.0057563330        0.0053198366        0.0083205605
  O         0.0205298134       -0.0141692434       -0.0268591609
  H        -0.0285479895        0.0224815772        0.0290770400
  H        -0.0023917944       -0.0167377137       -0.0037419782
  O        -0.0021476074       -0.0106182115       -0.0027318440
  H         0.0010416008       -0.0090113983        0.0025590872
  H         0.0038470922        0.0202265533        0.0002902763
  O         0.0189595781        0.0543383643        0.0344022543
  H        -0.0074024406       -0.0331636045       -0.0237928747
  H        -0.0124829509       -0.0239315050        0.0000262558
  O         0.0110101856        0.0226350236        0.0246061458
  H        -0.0134624788        0.0135051013        0.0074144604
  H         0.0013595429       -0.0208677031       -0.0389075698
  O         0.0429172212       -0.0206714227        0.0383851232
  H        -0.0058402811       -0.0049924292       -0.0163927665
  H        -0.0296852701        0.0235077147       -0.0204171125
  O         0.0558273415       -0.0517563585        0.0507772003
  H        -0.0104230371       -0.0135525355       -0.0113118732
  H        -0.0410147781        0.0609094268       -0.0328566491
  O        -0.0125902513       -0.0222984831        0.0150439156
  H        -0.0133170469        0.0236193896       -0.0102003387
  H         0.0179733530        0.0033791430       -0.0063432222
  O        -0.0253410342       -0.0121645624        0.0010947808
  H         0.0098670447        0.0170446494        0.0053101329
  H         0.0144939675        0.0010984663       -0.0037492555
  O         0.0139152236       -0.0343312060        0.0225921770
  H        -0.0042436579        0.0024534777       -0.0106991827
  H        -0.0052055689        0.0369568396       -0.0089800384
  O        -0.0005627651       -0.0160781723        0.0158548894
  H         0.0014697058       -0.0012692914        0.0010127352
  H        -0.0024725226        0.0105645934        0.0010026429
  O        -0.0114528696        0.0308463391       -0.0247706419
  H         0.0102177661       -0.0456274183       -0.0062009824
  H        -0.0027649562        0.0046402022        0.0209361113
  O         0.0041564857       -0.0074882994       -0.0187394630
  H         0.0014638368       -0.0076875374        0.0052047439
  H        -0.0004144735        0.0126257782        0.0086227471
  O         0.0157073246       -0.0131333585        0.0168768117
  H        -0.0090078271        0.0078484434       -0.0061927595
  H         0.0019683495       -0.0059398451        0.0068508194
  O        -0.0047168671        0.0035387963       -0.0006411988
  H         0.0028915487       -0.0086332726        0.0008544614
  H         0.0023434147       -0.0032479531       -0.0033161363
  O        -0.0470007588       -0.0423338007       -0.0084909764
  H         0.0301400817        0.0104809728        0.0184861475
  H         0.0155438648        0.0321864888       -0.0155578523
  O        -0.0077337428        0.0090990779        0.0100618218
  H         0.0101394534       -0.0017457767       -0.0073383630
  H        -0.0060539935       -0.0151660045        0.0026829836
  O         0.0019919691       -0.0079211972        0.0119032504
  H        -0.0079049164        0.0044572090       -0.0042041069
  H         0.0009979192        0.0049989483       -0.0083805235
     192
 i =        2, time =        0.200, E =     -1102.7858293228
  O         0.0162323012        0.0142778567       -0.0249335862
  H         0.0018476686        0.0075854030        0.0014114296
  H        -0.0528933089        0.0350714045        0.1706255689
  O         0.0929480307       -0.0529453458        0.0160263020
  H        -0.0897319702        0.0622616533       -0.0178184926
  H        -0.0073806292       -0.0050247063        0.0081654053
  O         0.0324535778       -0.0198417648       -0.0118743180
  H        -0.0340405350        0.0263513909        0.0217317029
  H        -0.0040187807       -0.0159765790       -0.0094665594
  O        -0.0003348404       -0.0155654292        0.0070124347
  H        -0.0014873061        0.0008311934       -0.0073568017
  H        -0.0151019651        0.0277820928        0.0011732640
  O         0.0021958272       -0.0077095696       -0.0051632918
  H        -0.0047926182       -0.0157295027       -0.0017509943
  H        -0.0015749177        0.0207190621       -0.0058734678
  O         0.0024858611        0.0071536479       -0.0246608134
  H        -0.0093277385       -0.0142166582        0.0204440188
  H         0.0138857629        0.0061371144        0.0022348773
  O        -0.0211643862        0.0299394612        0.0315316231
  H         0.0152880423        0.0010177769       -0.0289906898
  H         0.0030083078       -0.0269717422       -0.0005513793
  O        -0.0116019915        0.0134981093       -0.0009243110
  H         0.0086052007       -0.0064234445        0.0031153765
  H         0.0079642535       -0.0019732641        0.0011707100
  O         0.0276139838        0.0071953175       -0.0147301315
  H         0.0143186077       -0.0301276871       -0.0141495290
  H        -0.0421939610        0.0032348072        0.0289702495
  O         0.0153525094        0.0095107460       -0.0215296188
  H         0.0231643857       -0.0165857392        0.0040184783
  H        -0.0352648267        0.0234825720        0.0099591759
  O        -0.0273856715       -0.0349350475       -0.0213660549
  H         0.0225179970        0.0347751120        0.0011037524
  H         0.0071077894        0.0087653808        0.0167766355
  O         0.0006009145       -0.0102809176        0.0051755331
  H         0.0084643265       -0.0147280126        0.0081989716
  H        -0.0139214368        0.0231723441       -0.0047004595
  O         0.0121858966       -0.0427166287        0.0212179445
  H         0.0281142230        0.0173894987        0.0194606611
  H        -0.0409085231        0.0359285586       -0.0369662997
  O         0.0056447941        0.0267491973       -0.0264323959
  H        -0.0097359502        0.0008119005        0.0018393404
  H         0.0099718435       -0.0322500419        0.0138875460
  O         0.0423674976        0.0180218747        0.0021430047
  H        -0.0303470391       -0.0228849548       -0.0041763385
  H        -0.0106039432        0.0017987296        0.0090796115
  O         0.0140009658        0.0271062880        0.0080932893
  H        -0.0010352177       -0.0023242238       -0.0059997699
  H        -0.0143858845       -0.0148605336       -0.0000037494
  O         0.0299881888       -0.0491967744       -0.0255247925
  H        -0.0194412410        0.0062161508       -0.0011368051
  H        -0.0126769373        0.0395782021        0.0351737192
  O         0.0314660527        0.0163919282        0.0274888947
  H        -0.0124821100       -0.0300922606       -0.0172338108
  H        -0.0160559457        0.0131031618       -0.0074844466
  O        -0.0141643221        0.0067037989       -0.0028693747
  H         0.0853968781       -0.0753131902       -0.1731521949
  H        -0.0018984198        0.0014346486        0.0145224200
  O        -0.0074393351       -0.0032989059       -0.0046661332
  H         0.0097058371       -0.0018114327        0.0010494930
  H        -0.0008516947        0.0055619381       -0.0046880515
  O        -0.0244442362        0.0050056931        0.0184833592
  H        -0.0005035532        0.0063272178       -0.0040383734
  H         0.0149880492       -0.0122779607       -0.0098372061
  O         0.0265107971       -0.0118890836        0.0279329964
  H        -0.0258421061        0.0155601195       -0.0530337007
  H         0.0046757846       -0.0064166366        0.0253031887
  O        -0.0278272424       -0.0010748958        0.0610356599
  H        -0.0094002126       -0.0127561324       -0.0388796110
  H         0.0201223987        0.0077539013       -0.0113204327
  O        -0.0045457434       -0.0558367841       -0.0091115251
  H         0.0085553076        0.0663063711        0.0096876766
  H         0.0043566861       -0.0052227952       -0.0044154292
  O         0.0311277275        0.0048403099       -0.0376135695
  H        -0.0038753584        0.0011286296        0.0175734601