#     Step Nr.          Time[fs]        Kin.[a.u.]          Temp[K]            Pot.[a.u.]        Cons Qty[a.u.]        UsedTime[s]
         0            0.000000         0.023513604       330.000000000      -512.975045883      -512.951532279         0.000000000
         1            0.500000         0.022699499       318.574497441      -512.975113772      -512.951532305       127.752896070
         2            1.000000         0.022783713       319.756395709      -512.975174180      -512.951532298        11.460700989
