      15
 i =        0, time =        0.000, E =      -512.9750458834
 Ag         4.2093700000        4.1847900000        8.7128500000
 Ag         2.5428000000        5.5110200000        6.9389800000
 Ag         4.7365100000        4.1617300000        5.9808000000
 Ag         2.1721700000        5.6512200000       10.0919000000
 Ag         3.4260200000        1.5104400000        9.6929400000
 Ag         3.3721900000        3.5330800000       11.6657000000
 Ag         5.8906400000        2.7991800000       10.4803000000
 Ag         5.2835700000        5.5536100000       10.8626000000
 Ag         5.8440200000        2.1188300000        7.7979100000
 Ag         4.4958400000        1.0836100000       12.1708000000
 Ag         1.3198400000        3.3415600000        8.4474700000
 Ag         5.3831700000        1.6011800000        5.1075500000
 Ag         3.2172100000        1.9390600000        6.7546400000
  O         0.9631030000        5.4112900000        8.4212400000
  O         1.8220100000        1.3294500000        8.2711300000
      15
 i =        1, time =        0.500, E =      -512.9751137724
 Ag         4.2103952666        4.1840661000        8.7126812743
 Ag         2.5430285248        5.5107654971        6.9386998600
 Ag         4.7359656446        4.1612252290        5.9800989762
 Ag         2.1735724047        5.6500940807       10.0925081900
 Ag         3.4272394746        1.5099526712        9.6932864170
 Ag         3.3725169439        3.5326133395       11.6668969903
 Ag         5.8904084941        2.7986940316       10.4810090298
 Ag         5.2821292111        5.5527485083       10.8620637992
 Ag         5.8428638480        2.1197416623        7.7972235508
 Ag         4.4955209983        1.0852272338       12.1703714656
 Ag         1.3193548794        3.3430121041        8.4470524420
 Ag         5.3836201287        1.6010755106        5.1085782258
 Ag         3.2170730525        1.9395020196        6.7537446462
  O         0.9614332779        5.4111891349        8.4232955933
  O         1.8214547515        1.3333194604        8.2713736671
      15
 i =        2, time =        1.000, E =      -512.9751741800
 Ag         4.2113441517        4.1833297043        8.7125538362
 Ag         2.5432749886        5.5105126136        6.9383870925
 Ag         4.7354720059        4.1606311322        5.9793592159
 Ag         2.1749753763        5.6489784769       10.0932022936
 Ag         3.4284088663        1.5094001850        9.6936273735
 Ag         3.3728390384        3.5321195216       11.6680448657
 Ag         5.8901921425        2.7981644155       10.4817747209
 Ag         5.2806730523        5.5518130038       10.8614777264
 Ag         5.8417764612        2.1205695509        7.7965703072
 Ag         4.4952276539        1.0868549694       12.1699122416
 Ag         1.3189821456        3.3444601467        8.4465432237
 Ag         5.3840115246        1.6010591176        5.1096538314
 Ag         3.2169197196        1.9398944490        6.7529247323
  O         0.9597540829        5.4108555999        8.4254670100
  O         1.8211902360        1.3371386562        8.2716738538
