#     Step Nr.          Time[fs]        Kin.[a.u.]          Temp[K]            Pot.[a.u.]        Cons Qty[a.u.]        UsedTime[s]
         6            6.000000         3.618561712       709.941006762     -8580.312466062     -8576.705940797      1856.756846905
         7            7.000000         3.774142332       740.465030228     -8580.480831882     -8576.708048669       160.384975910
         8            8.000000         3.861779396       757.658918417     -8580.592783729     -8576.709931201       119.853107214
         9            9.000000         3.897660921       764.698667254     -8580.627119159     -8576.708212095       120.193082809
        10           10.000000         3.863355283       757.968098316     -8580.607578460     -8576.707023605       120.599007130
