    1074
 i =        6, time =        6.000, E =     -8580.3124660623
 Li         0.0001662655        0.0007695470       -0.0022451218
 Li         0.0008941821        0.0008891921       -0.0021579700
 Li         0.0004251975        0.0011623783       -0.0030805855
 Li         0.0003531925       -0.0017240771       -0.0040449601
 Li        -0.0001801315       -0.0002784166       -0.0016557921
 Li         0.0000546752        0.0000987187       -0.0026997197
 Li        -0.0002183128       -0.0008208035        0.0000919753
 Li         0.0008458086        0.0005925816       -0.0017398383
 Li        -0.0003177977        0.0007551457       -0.0022017744
 Li        -0.0008581734        0.0009091001       -0.0019800558
 Li        -0.0013252186       -0.0000207784       -0.0031363635
 Li         0.0002437549       -0.0013062085       -0.0022305079
 Li        -0.0010233648        0.0005366557       -0.0031639360
 Li         0.0001815057       -0.0005332413       -0.0029237717
 Li        -0.0015118890        0.0000528165       -0.0055171820
 Li        -0.0010568068        0.0001157796       -0.0037942982
 Li         0.0008045555       -0.0011146213       -0.0038575434
 Li        -0.0004788225       -0.0008080805       -0.0052377507
 Li         0.0001895238        0.0006859934       -0.0020612220
 Li         0.0000422341        0.0006200888       -0.0021324915
 Li        -0.0004330583       -0.0021537111       -0.0016520740
 Li         0.0000754283        0.0002944227       -0.0045449748
 Li        -0.0001894523        0.0002314985        0.0008037937
 Li        -0.0001784117       -0.0004463570       -0.0018788704
 Li        -0.0004543144        0.0006525923       -0.0029325608
 Li        -0.0008318384       -0.0011391294       -0.0018442266
 Li         0.0024073524        0.0004249771       -0.0034560133
 Li        -0.0001914024        0.0000431043        0.0003851009
 Li         0.0001053009        0.0001740099        0.0005703824
 Li         0.0002140057        0.0008980807       -0.0012053747
 Li        -0.0004496501       -0.0007926943       -0.0010451027
 Li         0.0005823281       -0.0018893750       -0.0033593119
 Li        -0.0009216529       -0.0013225709       -0.0016072408
 Li         0.0008722676        0.0006700379       -0.0031053488
 Li        -0.0012944746        0.0002269130       -0.0018682348
 Li         0.0011550032        0.0002906750       -0.0009646354
 Li        -0.0010122794        0.0014666077        0.0002388908
 Li        -0.0031536664        0.0001973503        0.0001253101
 Li         0.0003373867        0.0001547144        0.0007781738
 Li         0.0006220706       -0.0009483375       -0.0010601190
 Li         0.0004187361        0.0026011107       -0.0015858762
 Li         0.0020537594       -0.0002673921       -0.0001109043
 Li         0.0011323839        0.0005875544       -0.0010901990
 Li         0.0005464034        0.0005520305        0.0003929278
 Li         0.0025813961        0.0007687318       -0.0001949801
 Li        -0.0006903945        0.0015813641       -0.0027223117
 Li        -0.0010406387        0.0016187306       -0.0007545630
 Li        -0.0027133640       -0.0000407253        0.0023887764
 Li         0.0000736331       -0.0006939572       -0.0028711443
 Li         0.0012714464       -0.0015338999       -0.0010714233
 Li         0.0008355620       -0.0011449222       -0.0029578158
 Li         0.0008318683       -0.0013219578       -0.0043827489
 Li        -0.0022692648       -0.0013504102       -0.0006155492
 Li        -0.0010160679       -0.0000849966        0.0005566611
 Li         0.0010917595        0.0032552166        0.0007355655
 Li         0.0014613078       -0.0000840633       -0.0018225578
 Li         0.0013813342        0.0007905153       -0.0062099002
 Li         0.0003078444       -0.0024125207       -0.0029111112
 Li        -0.0016457501       -0.0013182087       -0.0033603088
 Li         0.0000650741        0.0011768851       -0.0006928647
 Li        -0.0010910309       -0.0009594014       -0.0039635529
 Li         0.0030739449       -0.0011830349        0.0010986927
 Li         0.0008928596       -0.0000089682       -0.0031560472
 Li         0.0007238414       -0.0008740892       -0.0000751679
 Li        -0.0016930168        0.0030827627       -0.0014040391
 Li        -0.0001696377       -0.0020648014       -0.0003716633
 Li        -0.0006507435       -0.0019628298       -0.0042651545
 Li        -0.0013221655       -0.0011622620       -0.0009846791
 Li         0.0005261429       -0.0002491305       -0.0032966883
 Li        -0.0004249498        0.0041329464       -0.0017244056
 Li        -0.0001563193       -0.0034246201       -0.0013379728
 Li         0.0019672994        0.0001028835       -0.0028390206
 Li         0.0007234805       -0.0010739292        0.0003004679
 Li        -0.0018113160        0.0021075071        0.0009118677
 Li         0.0004427493        0.0014518394        0.0011744880
 Li         0.0018413029       -0.0001832217        0.0002414284
 Li         0.0011161217       -0.0021234897        0.0002757620
 Li        -0.0001167480        0.0018812125       -0.0018778359
 Li         0.0002766145        0.0010192042       -0.0007467424
 Li        -0.0020216937        0.0002528905        0.0005714161
 Li         0.0010253772       -0.0020074443        0.0030082578
 Li        -0.0006216323        0.0016411717        0.0008348456
 Li         0.0023578650       -0.0015335019       -0.0001252815
 Li        -0.0026489245       -0.0006553104        0.0003767690
 Li         0.0010088709       -0.0005062205       -0.0011334773
 Li        -0.0001942273       -0.0010318873       -0.0004829730
 Li        -0.0001772404        0.0016808718       -0.0029302341
 Li         0.0011276460        0.0000090848       -0.0033378428
 Li        -0.0005184506        0.0014207178       -0.0005902073
 Li        -0.0003481010        0.0013140481        0.0006752491
 Li        -0.0001889566        0.0019648355       -0.0002798846
 Li        -0.0015126544        0.0004674497        0.0008990478
 Li         0.0000843350        0.0041831965       -0.0014372756
 Li        -0.0010819869        0.0003613567        0.0007843035
 Li        -0.0008683329       -0.0035222609       -0.0026710539
 Li        -0.0009995192        0.0002248857       -0.0011823381
 Li        -0.0000406361        0.0028906180       -0.0008998200
 Li        -0.0025664567        0.0006176784       -0.0002376841
 Li        -0.0011625018        0.0005130462       -0.0007949784
 Li         0.0011503646       -0.0000192460        0.0030253589
 Li         0.0031655800        0.0019852662       -0.0040024235
 Li         0.0015825508        0.0011835284        0.0004983876
 Li         0.0021025215       -0.0009587930       -0.0029607632
 Li         0.0002452568       -0.0011773535       -0.0068880088
 Li        -0.0005952147        0.0003407726        0.0014194127
 Li        -0.0016617621       -0.0030934228       -0.0033930591
 Li         0.0028644763       -0.0027663191        0.0009479254
 Li        -0.0021966162        0.0013553650       -0.0009499372
 Li         0.0001049818       -0.0020184655       -0.0013520738
 Li         0.0011784583       -0.0005056277       -0.0024944737
 Li         0.0017165603       -0.0010796050       -0.0025639166
 Li        -0.0036849014       -0.0020337290        0.0056317983
 Li         0.0013646852        0.0000095696       -0.0024646933
 Li        -0.0006200787       -0.0006207325        0.0059930428
 Li        -0.0025784817        0.0024094989       -0.0001950723
 Li         0.0010231656        0.0026719408       -0.0016450193
 Li         0.0000972496        0.0005960893       -0.0004960398
 Li        -0.0007981822       -0.0001168505        0.0001988218
 Li        -0.0001308850        0.0022147331       -0.0020750902
 Li         0.0022293633       -0.0009139443       -0.0005480658
 Li        -0.0005902750       -0.0016479260       -0.0002686456
 Li         0.0004776629       -0.0012484662       -0.0004855474
 Li         0.0011655258       -0.0004895550       -0.0005474074
 Li        -0.0018781596        0.0021271021        0.0013996431
 Li         0.0013917046        0.0004942237       -0.0031290510
 Li         0.0003605681       -0.0019305140        0.0032605031
 Li         0.0030558967        0.0020028284        0.0002254978
 Li         0.0005562400       -0.0006850663       -0.0020160430
 Li         0.0010207807        0.0007609963        0.0033580594
 Li         0.0008489140       -0.0008748114        0.0014480402
 Li        -0.0027722293        0.0000074995        0.0005601052
 Li         0.0002247952        0.0011773809       -0.0038931855
 Li        -0.0029459169        0.0013703048        0.0020955484
 Li        -0.0010878647       -0.0019452165        0.0017990751
 Li        -0.0009124575       -0.0011514142        0.0034273207
 Li         0.0001964774       -0.0002024931        0.0018301942
 Li        -0.0013053602       -0.0000345284       -0.0003106688
 Li        -0.0018834461        0.0001314746        0.0005678708
 Li        -0.0001201433       -0.0005746979       -0.0042273791
 Li        -0.0005323686       -0.0024308146       -0.0010413021
 Li         0.0007536561       -0.0032790218       -0.0000508781
 Li         0.0006784433        0.0004861954       -0.0033574346
 Li        -0.0015194123       -0.0017955468        0.0002548901
 Li         0.0003441450        0.0033615817        0.0028554137
 Li         0.0000632466       -0.0000428476        0.0028467687
 Li        -0.0005241948       -0.0007037744        0.0005564712
 Li         0.0002391484        0.0006250446        0.0023865153
 Li         0.0012261427        0.0010225371       -0.0000822497
 Li         0.0011589706       -0.0011969360       -0.0002192888
 Li         0.0013656366       -0.0009908154       -0.0006350081
 Li        -0.0027400963        0.0026075750       -0.0011518834
 Li        -0.0024915553       -0.0004764384        0.0024874550
 Li         0.0003446523       -0.0000293350        0.0035351552
 Li         0.0022906978        0.0031417547        0.0009886469
 Li         0.0014818448       -0.0031959509        0.0010058396
 Li         0.0038965500       -0.0006469156       -0.0006135158
 Li        -0.0022761724        0.0000298540        0.0022478097
 Li         0.0029212064       -0.0005068182        0.0023465000
 Li         0.0049681376        0.0007467753       -0.0005424538
 Li         0.0022793917       -0.0000417434       -0.0026739551
 Li         0.0002546704       -0.0007819375        0.0014063141
 Li        -0.0014499906       -0.0006012999        0.0019673414
 Li         0.0007270489        0.0002216266        0.0018069361
 Li        -0.0014304065       -0.0039761973        0.0000280346
 Li         0.0000345184        0.0018549965        0.0019456763
 Li         0.0009520258        0.0021115119        0.0009420065
 Li        -0.0003835224        0.0006082830        0.0003301572
 Li        -0.0010088611        0.0023768137        0.0000432188
 Li         0.0007622933        0.0013851552        0.0019662916
 Li         0.0012159000       -0.0002989857        0.0002058113
 Li        -0.0004252851        0.0024442186        0.0031483783
 Li         0.0003020408       -0.0016601624        0.0049626782
 Li        -0.0026812693       -0.0019501018        0.0007704140
 Li         0.0004819267       -0.0004787777       -0.0021319431
 Li        -0.0010576146        0.0012727161        0.0021673501
 Li         0.0021341257        0.0001356075       -0.0027006680
 Li        -0.0000127215       -0.0027408397        0.0000161359
 Li        -0.0021083474        0.0005026508        0.0006661359
 Li        -0.0012466658        0.0027954488        0.0025808740
 Li        -0.0018767188        0.0002483515        0.0026755061
 Li        -0.0006868110        0.0008184597        0.0008318051
 Li        -0.0003104060       -0.0005480739        0.0031268890
 Li        -0.0007499980        0.0014137156        0.0048846881
 Li         0.0004377787        0.0009954434        0.0011408910
 Li        -0.0005819615       -0.0016640890        0.0055072377
 Li        -0.0006673879       -0.0006418295       -0.0009996005
 Li         0.0013092984        0.0003636808        0.0028266838
 Li         0.0007140313       -0.0006561095        0.0014151020
 Li        -0.0018202794       -0.0006214711        0.0029988541
 Li        -0.0001646089       -0.0012774594        0.0013570184
 Li        -0.0012421047        0.0002634286        0.0022321633
 Li         0.0002635668        0.0005965744        0.0042375542
 Li        -0.0001911210       -0.0007679824        0.0029273214
 Li        -0.0003789993        0.0013620987        0.0040409219
 Li         0.0000198716       -0.0013281201        0.0031691554
 Li        -0.0007953227        0.0016438619        0.0020276027
 Li         0.0002641359        0.0007255710        0.0012867590
 Li         0.0011873631       -0.0013461339        0.0026728094
 Li        -0.0007523820       -0.0020384028        0.0020439364
 Li        -0.0003535793        0.0000945024        0.0033202709
 Li         0.0004672835        0.0010432440        0.0025660254
 Li         0.0000662148       -0.0013966306        0.0047156542
 Li         0.0010511889        0.0014171515        0.0054266987
 Li        -0.0009442279        0.0000448476        0.0053290255
 Li         0.0002278772       -0.0015688043        0.0016814300
 Li         0.0012961198       -0.0009109407        0.0024558747
 Li         0.0011210334        0.0002713112        0.0031927994
 Li        -0.0005667587       -0.0005123238        0.0029611856
 Li         0.0000134873        0.0005470941        0.0006179012
 Li        -0.0015273452        0.0006613996        0.0060906343
 Li        -0.0006106084       -0.0008078393        0.0029076700
 Li        -0.0002216953        0.0015438017        0.0042505955
 Li        -0.0005023410        0.0002806448        0.0039910193
 Li         0.0007404848       -0.0003721317        0.0026385027
 Li        -0.0008025776        0.0012922253        0.0033809353
 Li         0.0006940256       -0.0006555180        0.0037728784
  C        -0.0007440154        0.0115499591       -0.0163531512
  O         0.0115314493        0.0205102772        0.0326590573
  C        -0.0523300596       -0.0257470658        0.0050476872
  C         0.0089353691       -0.0247043753       -0.0542586818
  O         0.0227914308        0.0289343386        0.0463599869
  C         0.0260298744        0.0133609145       -0.0106659958
  H        -0.0028028391       -0.0061695917        0.0094656541
  H        -0.0004971337       -0.0080955158       -0.0014255528
  H         0.0014391451       -0.0029089986       -0.0036691163
  H         0.0032048600       -0.0078018786       -0.0024440554
  H        -0.0098809669        0.0114746303        0.0003197629
  H        -0.0027892292       -0.0080593419        0.0188027948
  H        -0.0107092111        0.0067075964       -0.0040699101
  H         0.0087522924        0.0042553292       -0.0022230834
  H         0.0105078174       -0.0035802613        0.0013490743
  H        -0.0137407957       -0.0019148054       -0.0063533655
  C         0.0190175702       -0.0253088250        0.0171978478
  O        -0.0121370536       -0.0167827780       -0.0136860396
  C        -0.0258027637        0.0252046622        0.0040403903
  C         0.0119415180       -0.0006354831        0.0059287103
  O         0.0217502203       -0.0243304081        0.0021278981
  C         0.0277035361        0.0197973189       -0.0222639876
  H        -0.0185612529        0.0166893699       -0.0134758601
  H        -0.0027242256       -0.0034152210       -0.0012424328
  H         0.0014882416       -0.0004572497       -0.0097740548
  H         0.0095547114        0.0141781935       -0.0128068741
  H         0.0148497224        0.0033462350        0.0137320918
  H        -0.0033501041        0.0030252540       -0.0040346070
  H        -0.0165301162       -0.0081997663        0.0179359257
  H        -0.0119591445       -0.0070762842       -0.0128248745
  H         0.0054998071        0.0058149273        0.0089676642
  H        -0.0225449413       -0.0030085451        0.0190037345
  C         0.0173236592        0.0229470851       -0.0261455256
  O         0.0076270350       -0.0153113099        0.0190789803
  C         0.0054901397       -0.0169849360        0.0244159420
  C        -0.0155334411       -0.0257359935       -0.0233525559
  O        -0.0168597943        0.0141399518        0.0182256184
  C         0.0045781743        0.0208595835       -0.0280499560
  H         0.0264145811        0.0157661535        0.0199269785
  H        -0.0215451054        0.0017501856        0.0074798601
  H        -0.0108723602       -0.0267282185       -0.0003079143
  H        -0.0047820130       -0.0120930367        0.0113072062
  H        -0.0201572754        0.0192033703       -0.0036234778
  H         0.0318895378        0.0159384544       -0.0167578427
  H        -0.0186763445       -0.0129890222        0.0019745194
  H         0.0039315677        0.0016961357       -0.0072193197
  H         0.0218281555       -0.0094426846        0.0029356598
  H        -0.0063986029       -0.0125229924       -0.0052187205
  C        -0.0142855198       -0.0423101586       -0.0392891015
  O         0.0051831475        0.0363029049        0.0001073365
  C        -0.0000808728       -0.0481331526        0.0089571419
  C        -0.0209895199       -0.0076682358        0.0421182047
  O        -0.0103597400       -0.0211618337       -0.0242700968
  C         0.0057466506        0.0207220541        0.0066130191
  H        -0.0063475963        0.0155079115       -0.0055419864
  H        -0.0169564439        0.0056728212        0.0028435557
  H         0.0176528558        0.0066711087        0.0064331300
  H         0.0225051343        0.0281163263       -0.0109916837
  H        -0.0088489328       -0.0059268143        0.0246550002
  H         0.0195156618        0.0082778659        0.0081006055
  H         0.0082178526        0.0050745994       -0.0142229200
  H         0.0106339932        0.0026224368       -0.0091479086
  H         0.0051987084       -0.0034276705        0.0034624447
  H        -0.0208592844       -0.0035325850        0.0061545345
  C        -0.0059332216        0.0367113247        0.0529117707
  O        -0.0142401068        0.0185853547       -0.0075438604
  C         0.0524306178       -0.0108814548        0.0004639630
  C        -0.0232238078        0.0098841348        0.0056978114
  O        -0.0113708101        0.0023974561        0.0028284850
  C         0.0219413303       -0.0192682501        0.0265158722
  H         0.0115270918       -0.0179014830       -0.0369452869
  H        -0.0270008008       -0.0337588148       -0.0055568933
  H         0.0316520105       -0.0160310216        0.0092206654
  H        -0.0322327475        0.0020611668       -0.0112502124
  H        -0.0005134820       -0.0047960324       -0.0085323709
  H        -0.0225747056        0.0338767132       -0.0171634216
  H         0.0324073783       -0.0159150487       -0.0034929884
  H        -0.0036851804        0.0093236200        0.0174172765
  H         0.0074584774       -0.0048872633       -0.0205694365
  H        -0.0096589611        0.0040373613       -0.0036864176
  C        -0.0547384047       -0.0099182462       -0.0146693191
  O        -0.0160145124       -0.0050292106       -0.0159575913
  C        -0.0279689399        0.0412767424       -0.0204307463
  C         0.0587117115        0.0071135649        0.0375532080
  O        -0.0066351576       -0.0095452809       -0.0205602768
  C         0.0112407637       -0.0169818570        0.0766713486
  H         0.0352679914       -0.0021243613       -0.0127960517
  H         0.0008658165       -0.0040507961        0.0019245337
  H         0.0203261300        0.0016654539        0.0218909080
  H        -0.0049508000        0.0003215011        0.0045065626
  H         0.0308428787        0.0033293635        0.0185232555
  H        -0.0326855459       -0.0078947375        0.0050808519
  H        -0.0110262149        0.0071093456       -0.0263505413
  H         0.0031417668       -0.0050342041       -0.0495731278
  H         0.0187990082       -0.0006829767        0.0011934295
  H        -0.0223908191        0.0015453754       -0.0053466804
  C        -0.0240480769       -0.0201665275        0.0260185479
  O         0.0277274395        0.0197373169        0.0076737362
  C        -0.0061066373       -0.0144110164       -0.0290215855
  C         0.0085911086        0.0203705903        0.0255239572
  O        -0.0007285801        0.0077742069       -0.0417361316
  C        -0.0021592756        0.0503139247        0.0197739258
  H        -0.0038130904       -0.0119795415       -0.0073755207
  H         0.0090594245        0.0194471434        0.0128000020
  H        -0.0064450148        0.0148264119       -0.0234586193
  H        -0.0082357019        0.0129430332        0.0145535254
  H        -0.0006536653       -0.0279941740       -0.0068962624
  H         0.0138833480       -0.0191392607       -0.0119252020
  H        -0.0019625457       -0.0161275083       -0.0015147229
  H         0.0166970069       -0.0306549614       -0.0038005199
  H        -0.0215865248        0.0023437957       -0.0039611839
  H         0.0027713337       -0.0060712574        0.0113304723
  C        -0.0444063225       -0.0315836954        0.0519221655
  O         0.0489524007       -0.0063304608        0.0158568615
  C        -0.0565068384        0.0034784545        0.0203467139
  C        -0.0409300145        0.0286996445       -0.0416971253
  O         0.0262440871       -0.0129483322        0.0016852882
  C        -0.0097956910       -0.0179356578       -0.0211739596
  H         0.0175954660        0.0020665218       -0.0426781515
  H         0.0291030538        0.0022327340       -0.0006890164
  H        -0.0126951044        0.0063545541       -0.0064301365
  H         0.0104981794        0.0303495054       -0.0016837879
  H         0.0031830986       -0.0021384590       -0.0160112585
  H         0.0039786044       -0.0076731148        0.0148113933
  H         0.0095877669       -0.0116082640        0.0048979854
  H        -0.0288875535       -0.0185091151        0.0002802100
  H         0.0088858836        0.0067937101        0.0208903979
  H         0.0211710031        0.0186700576       -0.0007341026
  C        -0.0618701812       -0.0570612747        0.0318846376
  O         0.0152395451        0.0562392985        0.0506107210
  C         0.0402977088       -0.0560047175       -0.0587003817
  C        -0.0547140111        0.0227692750        0.0328396064
  O        -0.0068065057        0.0333585050        0.0010774035
  C         0.0098316646        0.0043408652        0.0582459582
  H         0.0265687417       -0.0042640761       -0.0079862632
  H        -0.0037235286        0.0114071689       -0.0257101074
  H         0.0182390814        0.0064485650       -0.0049029710
  H         0.0073331725        0.0119117489        0.0052989817
  H        -0.0013742125        0.0329279094        0.0001151281
  H        -0.0028153858        0.0006126089       -0.0008252209
  H        -0.0032868786       -0.0266351916       -0.0350796100
  H         0.0101606861        0.0145633867       -0.0210555994
  H        -0.0044604244       -0.0225105855       -0.0391688271
  H         0.0077987761       -0.0177167174        0.0138827187
  C        -0.0036743904       -0.0348715722       -0.0215482576
  O         0.0364145215       -0.0016557065        0.0079006918
  C        -0.0161674830       -0.0013824181        0.0176451521
  C         0.0097605068        0.0680780202        0.0041748270
  O        -0.0071740094       -0.0261096542        0.0091870828
  C         0.0040367209        0.0276368416        0.0266773892
  H        -0.0321606323        0.0065813538       -0.0039025476
  H        -0.0120222800       -0.0092961957       -0.0090364427
  H         0.0157227288        0.0309074916       -0.0141393259
  H         0.0126138740        0.0201938072        0.0032689684
  H        -0.0059864450       -0.0058473189        0.0129253094
  H         0.0042630756       -0.0294777976       -0.0211401992
  H        -0.0016067946       -0.0295228071        0.0199358390
  H        -0.0119469194       -0.0123953378       -0.0352381173
  H         0.0175299338       -0.0040551154       -0.0069438547
  H        -0.0092050542        0.0060270448        0.0111780238
  C         0.0093737261        0.0068522516       -0.0089468930
  O         0.0398491981        0.0115716725       -0.0198315290
  C        -0.0370484508       -0.0121386968        0.0238334025
  C        -0.0094946672       -0.0254726446       -0.0111771732
  O         0.0026001961        0.0175614977       -0.0042956572
  C        -0.0029569656       -0.0179923203       -0.0176714094
  H        -0.0156284781        0.0015887544       -0.0035642339
  H        -0.0060015797       -0.0181774924        0.0184673255
  H        -0.0030608655        0.0051678035        0.0028881405
  H         0.0052724519        0.0047121581       -0.0114941525
  H        -0.0001369380        0.0184592631        0.0077292341
  H        -0.0101521284       -0.0114034711        0.0045984133
  H         0.0245208516        0.0065501158        0.0034175752
  H        -0.0185476218        0.0021043914        0.0132805390
  H         0.0199590167        0.0176919454       -0.0149660346
  H         0.0069881274       -0.0055562421        0.0189699784
  C         0.0164022761        0.0120326640        0.0367038203
  O         0.0213571483        0.0272134175       -0.0272935481
  C        -0.0338235124        0.0486294189        0.0373244023
  C         0.0227551752       -0.0737660313       -0.0264080869
  O        -0.0059179639        0.0056384115        0.0241273605
  C        -0.0241512729       -0.0687268207       -0.0131914972
  H        -0.0188639437        0.0130240637        0.0002071102
  H        -0.0030963510       -0.0320904631        0.0135862038
  H        -0.0095559430       -0.0143700611       -0.0393841726
  H         0.0123240169       -0.0065658981       -0.0212725893
  H         0.0003262417       -0.0217208626        0.0028141267
  H         0.0117398552        0.0225643622       -0.0166509354
  H         0.0042494355        0.0263985644        0.0272003305
  H        -0.0006303837        0.0232175151       -0.0016384066
  H         0.0011120201        0.0201317682        0.0113465912
  H        -0.0020729176        0.0126022772       -0.0051041996
  C        -0.0438048286       -0.0267930976        0.0301908628
  O         0.0038721751        0.0267160703        0.0329641386
  C        -0.0054992018       -0.0152575848       -0.0032158250
  C         0.0310188981        0.0107397231       -0.0442346995
  O        -0.0203316377        0.0022419488       -0.0041231836
  C         0.0400154388       -0.0187423309       -0.0372339872
  H         0.0270060059        0.0073608130        0.0144878787
  H        -0.0109523369        0.0047562772       -0.0079494181
  H         0.0195991589        0.0065254944       -0.0339062119
  H        -0.0007061551        0.0161888917       -0.0173052206
  H         0.0069726770        0.0098364383        0.0036829935
  H        -0.0014842693       -0.0037334248       -0.0006570564
  H        -0.0068184610       -0.0167081320        0.0120556450
  H        -0.0298300910        0.0218533878        0.0077119490
  H        -0.0092512137        0.0025539885        0.0309108570
  H         0.0053990912       -0.0154494347        0.0034348109
  C        -0.0555144462        0.0260845945        0.0016888093
  O         0.0410692254        0.0117236836        0.0139455641
  C        -0.0167011733       -0.0488189889       -0.0002505393
  C         0.0141590522       -0.0526341978        0.0046394380
  O         0.0327981182        0.0016161173       -0.0183953231
  C        -0.0681925110       -0.0059255967       -0.0044322364
  H         0.0105205183       -0.0183687165        0.0135814732
  H         0.0128208049        0.0082191861        0.0017504953
  H         0.0013248910       -0.0073921872       -0.0197417019
  H         0.0079107910        0.0135589485       -0.0129093722
  H        -0.0117540568        0.0204567237       -0.0156462446
  H         0.0165345137        0.0268624572        0.0107220788
  H        -0.0114199876        0.0000031718       -0.0031169136
  H        -0.0091713138        0.0103091187        0.0295152350
  H         0.0314890423        0.0143625744        0.0002162159
  H         0.0119054592       -0.0011639561        0.0063906476
  C         0.0108836774       -0.0159215276        0.0150072328
  O         0.0114337280        0.0105930524        0.0176532780
  C         0.0458880388       -0.0052098735       -0.0249511740
  C         0.0350485414        0.0181728877        0.0676902482
  O        -0.0530954648        0.0133565084        0.0133531601
  C         0.0429994327        0.0192767605        0.0041663102
  H        -0.0075503923       -0.0272149386       -0.0213069469
  H        -0.0020825257       -0.0029401991       -0.0009683110
  H        -0.0125135311        0.0123740813       -0.0056447413
  H        -0.0294607718        0.0060733127       -0.0091190364
  H        -0.0030558924        0.0023129724        0.0285926217
  H        -0.0091476594       -0.0005717006       -0.0414376685
  H        -0.0029493058       -0.0077808144        0.0016647072
  H         0.0251681979       -0.0055893435       -0.0074671282
  H        -0.0338919437       -0.0086037244       -0.0205019923
  H        -0.0148418897       -0.0108007395       -0.0039012131
  C         0.0233181166        0.0177167091        0.0109620637
  O        -0.0105678761       -0.0207736763       -0.0169919866
  C         0.0296101730        0.0501109320        0.0370340652
  C         0.0813206515       -0.0015823853       -0.0455176818