    1074
 i =        6, time =        6.000, E =     -8580.3124660623
 Li         1.7736156273        1.8087596870        1.8462000891
 Li         5.4374046076        1.7988759761        1.8000502960
 Li         9.0617391540        1.7739977388        1.9159545276
 Li        12.6600566643        1.8559797096        1.9090472575
 Li        16.3312290737        1.8352028650        1.8500628759
 Li        19.9700687415        1.8886326288        1.8194635058
 Li         1.7861720049        5.5000942736        1.7473266465
 Li         5.4010616658        5.4223205585        1.7632485497
 Li         9.1403616896        5.4137579807        1.8085411577
 Li        12.8287762020        5.4272545311        1.7984233788
 Li        16.4475777425        5.4256902502        1.8541468033
 Li        19.9885707675        5.5186878301        1.8195067141
 Li         1.8376656277        9.0375194688        1.7830079950
 Li         5.4457904768        9.1398636333        1.8126812553
 Li         9.1805124183        9.0976894447        1.9128359151
 Li        12.7596006663        9.1102672985        1.8127988524
 Li        16.2963916632        9.1495789639        1.8009148192
 Li        20.0246715496        9.1134790414        1.8436480771
 Li         1.8213693947       12.7225757479        1.7862414111
 Li         5.5007907452       12.7563202303        1.8475107026
 Li         9.0878206541       12.8324424820        1.7642153072
 Li        12.7314075809       12.7116149218        1.8891700322
 Li        16.3687085334       12.7046479722        1.6843144085
 Li        19.9921461962       12.7397992881        1.7664889658
 Li         1.8588424874       16.3384309809        1.8910741834
 Li         5.5055487303       16.4321090278        1.8447766193
 Li         9.0206421371       16.3927623090        1.8356491930
 Li        12.7333151907       16.3706030732        1.7386874806
 Li        16.3564760234       16.3990032407        1.7582759435
 Li        20.0064868718       16.3506565555        1.8150066531
 Li         1.8818719974       20.0504119137        1.7862391238
 Li         5.4862230069       20.0541144968        1.9188587744
 Li         9.1488054210       20.0638342556        1.8360295597
 Li        12.6849367495       19.9703626018        1.9109588199
 Li        16.4014844738       19.9731376833        1.7584556269
 Li        19.9513095790       20.0136247296        1.7353879031
 Li         0.0413919207       10.8916579984        3.4261335079
 Li        10.9977072313        3.6656897892        3.4493947144
 Li         3.6238117331       10.9113272577        3.3758867021
 Li         7.2724902537        0.0091820210        3.4569095349
 Li         7.2814409764       10.8361824170        3.4222754875
 Li        14.4973166908        3.6124679982        3.4207464625
 Li        10.8894408638       10.8934225078        3.4610080960
 Li        18.1549060121       -0.0016365416        3.3672854041
 Li        14.4687356868       10.9098662465        3.4360589592
 Li        18.1598191855        3.5924068688        3.4763981991
 Li        18.1976502034       10.8135877686        3.4718083388
 Li         3.7088146362        0.0019216883        3.3741651337
 Li        -0.0111862016       14.5311968695        3.4779409892
 Li        -0.0225838932        7.2913184258        3.4757441014
 Li         3.6356029508       14.5469090661        3.5022350935
 Li        -0.0481790915        3.6947011621        3.4719750250
 Li         7.3762323046       14.5985357649        3.4509487094
 Li         3.6431414333        7.2867599904        3.3723176104
 Li        10.8979968154       14.4682574688        3.4076358648
 Li        10.8661734702       -0.0079664780        3.5074634618
 Li        14.5390831468       14.5234357839        3.5335491045
 Li         7.2519751910        7.3404707966        3.4576203941
 Li        18.1782455897       14.6169468995        3.4620287215
 Li         3.6154124622        3.6218021654        3.4237007833
 Li         0.0343635392       18.2388464532        3.4698660368
 Li        10.8595179364        7.2819511237        3.4393742815
 Li         3.6466899958       18.1680310392        3.4957379428
 Li        -0.0384417981        0.0405368838        3.4018263886
 Li         7.3190481191       18.1205405729        3.4526793996
 Li        14.5073057826        7.3394530249        3.4118874291
 Li        10.9482552537       18.2466047605        3.5062409261
 Li         7.3092472402        3.7170009364        3.4729322418
 Li        14.5599622537       18.1951759499        3.4950281298
 Li        18.1991946525        7.1634053659        3.4829608995
 Li        18.2311229300       18.2939588546        3.4429312370
 Li        14.5037699123       -0.0233626310        3.4765665750
 Li        16.2809963010        5.4894566926        4.8457637619
 Li         5.5238484418        1.7817594170        4.8356898487
 Li         1.7882614484       16.3448811090        4.8383496486
 Li        16.2782856510        9.0757794139        4.8289472934
 Li         5.3831213617        5.5466594366        4.8484636899
 Li         5.4600771674       16.2976052455        4.8947181417
 Li        19.9897123471        5.4002863795        4.8858149747
 Li        20.1029985450        9.0671711188        4.8513963521
 Li         9.1365303432       16.4614367160        4.7840611088
 Li        12.7487513865        1.7723207245        4.8692103549
 Li        19.9213540106        1.8169112799        4.8482166287
 Li        12.7857528314       16.4080281209        4.8266392319
 Li         1.7994802927       12.7040907237        4.8557580532
 Li         1.8431875778        9.1401211449        4.8705788899
 Li        16.4428080492       16.3607882807        4.9173958796
 Li         9.0537355244        5.4873928291        4.9576409034
 Li         5.5103702548       12.6785538499        4.8649245874
 Li        20.0305299246       16.3565935638        4.8448646547
 Li         9.0917310151        1.7690933579        4.8984880738
 Li         5.4632238555        9.0967672738        4.8611588235
 Li         1.8193623566       19.9124522381        4.8600858294
 Li         9.1266827511       12.6840028837        4.8270661393
 Li         1.8286850897        1.8846896545        4.8940757782
 Li         5.4676399022       19.9939410471        4.9139685009
 Li        12.7521683053        5.3856889413        4.8949520292
 Li        12.7636409720       12.6885031685        4.8728035058
 Li         9.1222763818       20.0045898730        4.8753959279
 Li         9.0462960055        9.1033289688        4.8260340551
 Li         1.7793485786        5.4362512506        4.9278040014
 Li        12.6927285523       19.9865959533        4.8893502420
 Li        16.3123448880       12.7121573405        4.8943136768
 Li        16.3487988568        1.8136817836        5.0100516746
 Li        16.4124305814       20.0056536550        4.7966548979
 Li        12.7532110878        9.1656617343        4.9236098793
 Li        19.9051862228       12.7969352385        4.7978620719
 Li        20.0502165934       19.9977024124        4.8703171648
 Li         7.2763815114       10.9498433087        6.4858820450
 Li        10.8909199368       14.6044720646        6.4768977386
 Li        10.8458248212        7.2512643674        6.4923233779
 Li         0.0662634433        3.6764847596        6.2944159556
 Li         3.6047670307       21.8216391876        6.4426175056
 Li        14.5371357678       14.5965497785        6.3184602758
 Li        10.9632209899       10.8082098395        6.4655108436
 Li        21.8125736052       -0.0659926629        6.4264943502
 Li        14.4979805557        7.2588306236        6.4572281800
 Li        18.2255264576       14.5613980469        6.4222631056
 Li         0.0348726838        7.1945198935        6.4928738576
 Li        14.5054528309       10.9274170213        6.4443802451
 Li        10.8848230349        3.6683987123        6.4177145158
 Li        21.7728256309       18.2068137578        6.4289391408
 Li        18.1375250549       21.8128990296        6.4495031160
 Li        18.2730619484        7.2414732760        6.3834621711
 Li        18.1994774146       10.8836451162        6.4795922968
 Li         3.6135192735       18.2425122228        6.3758348189
 Li         3.5706150122        3.5857404064        6.4484374471
 Li         3.6231222696        7.2846742482        6.4785351552
 Li         7.2036959222       -0.0492872278        6.4015890098
 Li         7.2194470687       18.2188563202        6.3710181939
 Li        21.8899985192       14.5575483563        6.4177078130
 Li        -0.0162771888       10.9118589440        6.5192835017
 Li        14.5995861741        3.5866194503        6.4070739613
 Li        10.9628640316       18.2319198480        6.4132809512
 Li        14.5580901586       21.8130830884        6.3796307767
 Li         3.6115595034       14.5945900410        6.4130183038
 Li         7.3033018895        7.2726805270        6.4524350592
 Li        14.6223678727       18.1929043971        6.4200216876
 Li         3.6506890700       10.9244790175        6.5041579382
 Li        10.9462527994        0.0432077293        6.4537033475
 Li         7.2865245005       14.6488620684        6.4121178725
 Li        18.2048363939       18.1625753031        6.5077506026
 Li         7.2989675452        3.6393166732        6.4597567895
 Li        18.1777205481        3.5848465483        6.3502887312
 Li        16.3406813059       16.3338949700        7.8144912187
 Li         5.4607479560        5.4380670416        7.8571311320
 Li         1.8267686146       12.7493555501        7.7755805729
 Li        12.6936892873        5.4226105254        7.8794853650
 Li        19.9847780487       12.7787724294        7.8557814387
 Li        19.9747032199       16.3594467579        7.8979732420
 Li         9.1703674335        1.7190737450        7.9016367447
 Li         1.8530166958        1.8295173036        7.8307201529
 Li        12.6830043824        9.0796115930        7.7975830293
 Li         5.3872277966       12.7082920657        7.8298810475
 Li         1.7616648648       20.0853111067        7.8289176103
 Li         1.7210875953       16.4323412271        7.8515671907
 Li         1.8865284556        9.0558479749        7.8221619706
 Li         1.7553195852        5.4555718000        7.8576778798
 Li        12.6086287471        1.8081988024        7.8786826712
 Li         5.4065381880       20.0098875410        7.9661349226
 Li        16.3683317946        5.4994398553        7.8234813223
 Li         5.4979012657       16.4229203279        7.8525110266
 Li         9.1315912398       12.6919656607        7.8039966566
 Li        16.4127016896        9.1168333393        7.7872300563
 Li         9.0846412544       19.9526230179        7.7920198054
 Li         9.0418019921        5.3892468525        7.9086543269
 Li         5.4547445663        9.0912248153        7.8646296742
 Li         9.0864762489       16.3783981406        7.8283885945
 Li        20.0123612629        1.7648549460        7.8019352896
 Li        12.6952149161       20.0042563035        7.8753134104
 Li        12.7046297465       12.6762748749        7.7824952638
 Li        16.3682104358        1.8807454715        7.8328091653
 Li        20.1367604275        9.0869352179        7.8415907020
 Li        12.7081846663       16.4155704681        7.9189426524
 Li        16.4084174235       19.9541219664        7.8091023138
 Li         5.3780590509        1.8118879194        7.9487512423
 Li        20.0171868675        5.5211383535        7.8578233174
 Li        16.4172080932       12.7326056835        7.8152806681
 Li         9.1328249890        9.0434996603        7.8340850097
 Li        20.0420690459       20.0164368402        7.8221112568
 Li        18.2207897350        7.2438151376        9.4804978098
 Li         7.2776406989        3.6204378660        9.4394718632
 Li         0.0096647590       18.1656251288        9.3461945555
 Li         3.5988323988       14.5332619140        9.4465558786
 Li        10.9292615431       -0.0217976875        9.3804199277
 Li        10.9717161415       10.9287658113        9.6125772326
 Li        21.7720723693        7.2662748619        9.4912760090
 Li        14.5124653375        3.7062855321        9.4842821326
 Li         3.6682356188       18.2001114049        9.4132252743
 Li         7.2892928256       21.8760121899        9.4853701375
 Li         7.3397739223       14.4945421849        9.4092340688
 Li        21.8732265572       10.9158118388        9.3744698213
 Li        10.9247935048        7.2967554574        9.4391123892
 Li        14.5893355404       10.7967812885        9.3179105827
 Li         7.2892605752       18.2676748181        9.4083376782
 Li         3.6410099941        3.5748046101        9.5115637736
 Li        14.5683480042       -0.0303041922        9.4262285775
 Li        10.8042835344       14.6241710700        9.4578223989
 Li        21.8196288830        3.7538561615        9.4093622447
 Li         3.6583609613        7.2362446638        9.4347679508
 Li        10.8323215947       18.1299391850        9.4663514307
 Li         3.6143000249       10.9977596050        9.3684414140
 Li        18.1895650367       10.7761555011        9.3050221873
 Li        10.9281413683        3.6313083949        9.3512532404
 Li        14.4809380922       14.5961482516        9.4280217225
 Li        14.4586519180        7.3681196242        9.4201082741
 Li        14.5111352869       18.1997815202        9.4242813345
 Li        18.2487461571        3.6861955290        9.3586368343
 Li        18.1766854532       -0.0443062025        9.5145011531
 Li         3.6606898724       21.7679352987        9.3528822833
 Li        21.8813858637       14.5900224293        9.4023179975
 Li        18.1588507850       14.4726802012        9.3789488647
 Li        18.1962146737       18.1637861757        9.4075956119
 Li         7.2335659716       10.9396312196        9.4317330136
 Li         0.0451548178       21.7929346715        9.4332582769
 Li         7.2314734990        7.3171629144        9.3862323249
  C         8.3109397159        8.2317045744       23.5385470887
  O         9.3496985185        8.7030153551       22.6296197906
  C         9.9769470839        7.8302472814       21.7001235399
  C        10.8103177594        8.6651716662       20.8499435581
  O        11.8050616931        9.0629453525       21.6917496649
  C        13.0053644742        9.1611877476       21.0096671883
  H         7.4864474228        7.8978100385       22.8873695662
  H         7.9959583842        9.1492105691       24.0751945530
  H         8.6479750954        7.4782785994       24.2616572629
  H         9.1499327298        7.3835273667       21.1198116855
  H        10.6022958520        7.0058405050       22.1409810904
  H        10.4059182889        9.4696856626       20.1673521936
  H        11.2932242828        7.9089995241       20.1646310849
  H        12.9215127242        9.9970355759       20.2994205599
  H        13.1093964793        8.2515709034       20.3981967420
  H        13.8799622026        9.3095893401       21.6940735181
  C        21.0971977922       19.9433473960       38.0452661600
  O        19.8667909984       19.2388638693       37.8357557005
  C        19.7349119152       18.3197013230       36.6752986518
  C        20.2275231731       16.9323305421       36.8506497916
  O        21.6358073021       17.0598587321       36.8778499031
  C         0.4142176046       15.7420483375       37.0475185536
  H         0.0838308829       19.2521951728       38.4954328643
  H        20.8925541209       20.7397298789       38.7799076542
  H        21.5013176354       20.4201991674       37.1524388446
  H        20.2835384465       18.6898077146       35.8293748870
  H        18.6616319713       18.3338923192       36.3229059036
  H        19.9079357188       16.2489744226       36.0444037747
  H        19.9655607431       16.4907677514       37.7912097509
  H         0.2064583047       15.0973876126       36.2020966762
  H         0.0986403612       15.1952510843       37.9410936543
  H         1.5305221064       15.8996941990       36.8863126218
  C        17.0946908646        3.2701425569       27.5983012271
  O        17.0497257725        3.3024112359       29.0422526062
  C        18.2483209880        3.9180264587       29.6734899020
  C        18.0430108861        4.0917361374       31.3004636753
  O        18.3040561037        2.7923322696       31.9947933646
  C        17.6147208069        2.8769890144       33.3683448521
  H        16.1594541090        2.7699254777       27.1304738904
  H        18.0576161479        2.7836527207       27.2187183584
  H        17.2159220956        4.3711566803       27.2752510300
  H        18.4902850715        4.8887785558       29.1532928088
  H        19.1500202833        3.1987274440       29.5985425585
  H        16.9404933243        4.2476294630       31.5978450247
  H        18.7930812706        4.8739459507       31.5952501512
  H        17.6334291247        1.8952217542       33.8653039841
  H        16.5348827853        3.2185790663       33.2232743782
  H        18.1412688354        3.6684687793       33.9670816602
  C         3.4239642855       18.2298721249       36.9588313646
  O         2.8500466424       19.1286315327       35.9250485478
  C         2.4488889254       18.7549255107       34.5326309828
  C         1.6897552437       19.8845652173       33.7782608785
  O         1.7599178110       21.1209804477       34.5785441423
  C         1.3124352816        0.3509257471       33.6786046526
  H         3.5468168319       18.6744536135       37.9509155691
  H         4.4191963270       17.8114184882       36.6456085398
  H         2.6471365600       17.4163477955       37.0203410885
  H         1.7823595703       17.8017272583       34.6678818530
  H         3.3301602818       18.5439117134       33.8481392776
  H         0.6045850332       19.6009283219       33.5843538899
  H         2.1545307113       20.0238671824       32.8213654530
  H         0.7277623819        1.0341695834       34.3315576431
  H         0.6222967221       21.8188363992       32.8908240181
  H         2.2288558712        0.8297545745       33.2239345746
  C         3.4147832575       13.7284828017       37.1838939838
  O         3.5192166272       12.8718805102       38.4152730715
  C         3.8599448385       11.5096111866       38.1447476875
  C         3.8396715815       10.6347715514       39.4155843702
  O         4.9765239467       11.0767537068       40.1811040655
  C         5.2082929879       10.0942346159       41.1406627050
  H         3.4989736530       13.1033923947       36.3541218136
  H         4.2214718987       14.5871840526       37.2423961239
  H         2.3601125677       14.2103804071       37.1086959947
  H         4.9995424278       11.4565140891       37.9110087772
  H         3.2217333335       11.0831634316       37.3793228336
  H         4.0633909132        9.4871152443       39.3379641511
  H         2.8166980377       10.8643535757       39.9225004936
  H         5.1895737567        9.0857376511       40.6181645013
  H         4.5197230671       10.1419440469       42.0552685857
  H         6.2532445158       10.1871651906       41.5322560505
  C        17.0412765832       13.6230029555       21.3627231726
  O        17.4844466448       12.2734627657       21.0184884587
  C        16.9211734606       11.8548161914       19.7246585291
  C        17.5759121046       10.6343135528       19.2100118690
  O        17.5903133287        9.6964354661       20.3338067091
  C        17.0221732380        8.4440210874       19.8422317798
  H        15.8610533488       13.6501374185       21.4219347355
  H        17.4357484540       14.3918846510       20.6790511317
  H        17.2490725507       13.8225922097       22.3821984733
  H        17.1772804487       12.6527889341       18.9879162728
  H        15.7626124007       11.7593372085       19.6432181497
  H        18.6873055468       10.8585347347       18.9246816840
  H        17.0684477439       10.1068137561       18.4431596737
  H        17.0316431536        8.4318097302       18.8122270820
  H        15.9522347893        8.3132461259       20.1767221594
  H        17.7524565784        7.6822471878       20.2337960865
  C        13.5852562710       11.1654721847       30.5988261099
  O        14.9683311931       11.3351206416       30.4913447685
  C        15.6539943754       11.6437210184       31.8207118995
  C        16.9941506650       12.0827532248       31.3229400159
  O        16.8568183817       13.4003474293       30.8288814054
  C        17.2227270574       14.3525762423       31.7607581238
  H        13.1499754475       11.9728544910       31.2304970183
  H        13.2881796554       10.1158266916       30.9224544894
  H        13.1396621496       11.1444012339       29.6300735480
  H        15.7472264558       10.6322968883       32.2650021430
  H        15.1816819293       12.5224874580       32.3683811061
  H        17.2627683289       11.4913292309       30.4812313786
  H        17.7878787801       12.1471578844       32.0903833876
  H        16.8786463036       15.4172893659       31.4515025654
  H        18.3237090170       14.3146047468       32.0246830268
  H        16.6156054958       14.2514756651       32.6690235273
  C         1.8524071287       15.7493309685       16.8195339079
  O         1.4183415706       17.0511385826       17.1902249368
  C         0.3933122143       17.4960177501       16.3927050707
  C        21.5343576822       18.5366260348       17.3073520913
  O         0.5225007940       19.7361390544       17.3739371718
  C        21.6529680450       20.9259661979       17.8574411087
  H         2.1348287964       15.6793837415       15.8238067102
  H         0.8847092037       15.1352332505       16.9341296379
  H         2.6309001092       15.3685472235       17.5188241126
  H        21.5211070732       16.5872881885       16.1979722447
  H         0.7255088862       18.0160192219       15.5028706115
  H        21.2482828288       18.1494533631       18.2702266974
  H        20.5720578139       18.8859598125       16.8259517918
  H         0.5971631744       21.7704114484       17.8024042824
  H        21.2214706689       20.6975403747       18.8226401419
  H        20.6944330763       20.9537809383       17.2479256978
  C        11.1673579067       19.0014366924       21.7175404200
  O        10.9258032216       19.6695477641       22.9435793953
  C        10.3272158259       19.0792417654       24.2080233235
  C         8.9032745673       19.2011211705       24.0851505286
  O         8.4781804808       20.5521344879       24.2656229967
  C         7.0794557845       20.8764029596       23.9121615434
  H        10.1180214036       18.5757434229       21.4970954508
  H        11.8883782445       18.1881514626       21.9842820142
  H        11.3166314806       19.7144087602       20.9263329642
  H        10.7695205541       19.5137434753       25.0890883406
  H        10.5562392272       17.9304934564       24.2282097297
  H         8.4419611238       18.5514706761       24.8596917765
  H         8.4954478016       18.9759667762       23.1479995820
  H         6.3899104591       20.2799335462       24.5973632775
  H         6.8438063778       20.8383014879       22.8915538651
  H         6.9176823822        0.1625556162       24.0574835334
  C        13.7060465861        3.1622522565       32.8805566057
  O        12.6911133448        3.5717184138       31.7807441237
  C        12.7987129288        2.9435461131       30.3624455498
  C        11.5921971425        3.5810512892       29.6529350317
  O        10.3728595275        3.5690914773       30.3668553154
  C         9.8951124730        2.1661249387       30.4937705583
  H        14.2285457031        3.9464813111       33.4881976797
  H        14.6359754728        2.7572339015       32.4323567347
  H        13.2163942711        2.3054363129       33.4908042643
  H        12.6378247793        1.8235683820       30.4315886274
  H        13.7287247785        3.2216301239       29.8056466343
  H        11.4178670739        3.3525655403       28.6242805956
  H        11.7945334248        4.7209178727       29.4442078485
  H         9.9074619983        1.7171875292       29.5448670347
  H         8.8754600465        2.2182583957       30.9602264844
  H        10.6335525517        1.5432535288       31.0369074812
  C         6.4139716346       17.1473768921       26.5752146795
  O         6.2784849088       15.8435253625       27.1752112371
  C         5.0756482082       15.6328290775       27.8081308191
  C         5.0826729376       14.2291455677       28.3733215142
  O         5.6643591231       14.2628457054       29.6869204729
  C         5.7736021590       13.1041536513       30.5474220504
  H         5.7416530333       17.2443183479       25.7287186878
  H         7.4043473456       17.3741789181       26.0867470803
  H         6.2385347262       17.9316349476       27.3113085666
  H         4.1566495833       15.7229610651       27.2046412752
  H         4.9155426211       16.2596129361       28.6757356958
  H         5.7622702141       13.6927360541       27.6755757431
  H         4.0263194364       13.7873922411       28.3703020296
  H         6.5778550673       12.4504497457       30.0985986623
  H         4.8091414618       12.5371832528       30.8201379414
  H         6.1273362581       13.6114386722       31.4257326856
  C         5.7489024498        9.2941918145       31.0800927184
  O         4.6927126165        8.6840902724       31.9188010909
  C         4.4551936584        7.2637516136       31.6902066452
  C         5.4395347769        6.4713466518       32.4197004066
  O         6.7190210621        6.4721642489       31.6482228863
  C         7.8055398544        5.9444885901       32.4389357648
  H         6.7742756833        8.9123312293       31.3901258567
  H         5.7017797735       10.4450294498       31.0537307303
  H         5.6631759724        9.0049976633       30.0787965106
  H         4.1472158471        7.0221898908       30.6913798464
  H         3.4890238625        7.3072346277       32.2331731268
  H         5.0493997729        5.3830328777       32.6013856768
  H         5.6265604604        6.7133764262       33.4286325431
  H         7.5445161654        4.8590239229       32.7421546167
  H         8.0734975806        6.4067776741       33.3690634657
  H         8.6698599553        5.7132016043       31.8060585640
  C        17.8949318206        9.1597503742       35.8392411654
  O        17.6173408797       10.3581666137       36.5696608634
  C        17.0814577895       10.2460331283       37.9923830030
  C        16.9667843337       11.6362814644       38.7038114935
  O        18.3685065059       12.1440773183       38.7152119346
  C        18.6177336392       13.3547969525       39.4804268313
  H        16.9083774970        8.5958207475       35.5995203848
  H        18.6634914271        8.5206072511       36.3450980857
  H        18.2044427536        9.5288957334       34.9122098572
  H        17.6904217262        9.5458808221       38.6445796742
  H        16.0887755070        9.7532429211       37.8830628277
  H        16.5490367380       11.5863824735       39.7157825615
  H        16.4409535639       12.3936791625       38.0603506934
  H        19.7643280745       13.2189903992       39.5181654755
  H        18.1829299275       13.2314522277       40.4342188660
  H        18.2837614988       14.3232043197       39.0029343295
  C        16.8539125019        7.2271940518       40.0715503239
  O        17.1742993813        5.8729402839       40.0731685190
  C        16.3799504938        5.0101843436       39.3491275316
  C        16.2599594348        5.1281614857       37.7685544518
  O        15.3935556031        5.9862740976       37.0559150294
  C        14.2237172040        6.1816876988       37.7236482384
  H        17.4633330477        7.9536007081       40.6247778133
  H        15.7860440410        7.3087945134       40.4265538877
  H        16.8114588355        7.7170923919       39.1040923576
  H        15.4024647039        4.7801573746       39.8807825318
  H        16.9275548859        4.0103193664       39.5363668734
  H        15.9164034947        4.0528433760       37.4617872753
  H        17.3087390263        5.2847906067       37.4239944305
  H        14.4775721365        6.4323022922       38.7192908279
  H        13.4180614099        5.3233938072       37.7314971526
  H        13.6542004340        7.0030437489       37.2443337504
  C        15.7431726500       14.4583316554       36.3291520622
  O        15.4398678499       15.7071871099       35.7074971048
  C        16.0369126746       16.6779368765       36.6284987158
  C        15.6842653953       18.0304534996       36.1050335011
  O        14.3779718318       18.2704524004       36.5550384345
  C        14.1408101765       18.7106579742       37.9763314414
  H        15.8426114513       13.7667213036       35.5405836223
  H        14.9840875162       14.1585853135       37.0654284429
  H        16.7438800510       14.3879658768       36.8447224079
  H        17.1698699214       16.4742682247       36.7751903104
  H        15.5626784098       16.4797528159       37.5615936948
  H        15.8318173850       18.1144115848       35.0761689333
  H        16.3623405172       18.8289997126       36.4977308572
  H        13.0543024097       19.0020654164       38.1179055449
  H        14.9369742553       19.5135769053       38.2879858611
  H        14.4986219189       17.9475351940       38.6918737806
  C         3.0890302223        9.4552452836       35.2128949050
  O         2.8757836828        8.6553254034       36.4160165842
  C         3.8432589961        7.5598032005       36.2855247270
  C         3.6531048736        6.5265760031       37.3636778174