 *******************************************************************************
 *                            RESTART INFORMATION                              *
 *******************************************************************************
 *                                                                             *
 *    RESTART FILE NAME: Li-LiFSI-DME-1-1-1.restart                            *
 *                                                                             *
 * RESTARTED QUANTITIES:                                                       *
 *                       CELL                                                  *
 *                       COORDINATES                                           *
 *                       RANDOM NUMBER GENERATOR                               *
 *                       VELOCITIES                                            *
 *                       MD COUNTERS                                           *
 *                       MD AVERAGES                                           *
 *                       BAROSTAT                                              *
 *                       THERMOSTAT OF BAROSTAT                                *
 *                       PARTICLE THERMOSTAT                                   *
 *                       REAL TIME PROPAGATION                                 *
 *                       PINT BEAD POSITIONS                                   *
 *                       PINT BEAD VELOCITIES                                  *
 *                       PINT NOSE THERMOSTAT                                  *
 *                       PINT GLE THERMOSTAT                                   *
 *                       HELIUM BEAD POSITIONS                                 *
 *                       HELIUM PERMUTATION STATE                              *
 *                       HELIUM FORCES ON SOLUTE                               *
 *                       HELIUM RNG STATE                                      *
 *******************************************************************************

 DBCSR| CPU Multiplication driver                                           BLAS (U)
 DBCSR| Multrec recursion limit                                              512 (U)
 DBCSR| Multiplication stack size                                           1000 (D)
 DBCSR| Maximum elements for images                                    UNLIMITED (U)
 DBCSR| Multiplicative factor virtual images                                   1 (U)
 DBCSR| Use multiplication densification                                       T (D)
 DBCSR| Multiplication size stacks                                             3 (U)
 DBCSR| Use memory pool for CPU allocation                                     F (U)
 DBCSR| Number of 3D layers                                               SINGLE (U)
 DBCSR| Use MPI memory allocation                                              F (U)
 DBCSR| Use RMA algorithm                                                      F (U)
 DBCSR| Use Communication thread                                               T (U)
 DBCSR| Communication thread load                                             87 (D)
 DBCSR| MPI: My process id                                                     0
 DBCSR| MPI: Number of processes                                              56
 DBCSR| OMP: Current number of threads                                         1
 DBCSR| OMP: Max number of threads                                             1
 DBCSR| Split modifier for TAS multiplication algorithm                  1.0E+00 (U)


  **** **** ******  **  PROGRAM STARTED AT               2024-04-11 11:10:14.443
 ***** ** ***  *** **   PROGRAM STARTED ON                                cn5277
 **    ****   ******    PROGRAM STARTED BY                             chengroup
 ***** **    ** ** **   PROGRAM PROCESS ID                               4067333
  **** **  *******  **  PROGRAM STARTED IN /fs2/home/chengroup/xushuo/Li-LiFSI-D
                                           ME/1-1-test2

 CP2K| version string:                                       CP2K version 2024.1
 CP2K| source code revision number:                                  git:b4a17a5
 CP2K| cp2kflags: omp fftw3 parallel scalapack max_contr=4 plumed2 mkl          
 CP2K| is freely available from                            https://www.cp2k.org/
 CP2K| Program compiled at                          Thu Mar 14 15:59:01 CST 2024
 CP2K| Program compiled on                                             th-ex-ln1
 CP2K| Program compiled for                           Linux-intel-x86_64-minimal
 CP2K| Data directory path    /fs2/software/cp2k/2024.1-plumed-icc23-mpich//data
 CP2K| Input file name                                      Li-LiFSI-DME-1-1.inp
 
 GLOBAL| Force Environment number                                              1
 GLOBAL| Basis set file name                                        BASIS_MOLOPT
 GLOBAL| Potential file name                                           POTENTIAL
 GLOBAL| MM Potential file name                                     MM_POTENTIAL
 GLOBAL| Coordinate file name                                      __STD_INPUT__
 GLOBAL| Method name                                                        CP2K
 GLOBAL| Project name                                           Li-LiFSI-DME-1-1
 GLOBAL| Run type                                                             MD
 GLOBAL| FFT library                                                       FFTW3
 GLOBAL| Diagonalization library                                       ScaLAPACK
 GLOBAL| DGEMM library                                                      BLAS
 GLOBAL| Orthonormality check for eigenvectors                          DISABLED
 GLOBAL| Matrix multiplication library                                 ScaLAPACK
 GLOBAL| All-to-all communication in single precision                          F
 GLOBAL| FFTs using library dependent lengths                                  F
 GLOBAL| Grid backend                                                       AUTO
 GLOBAL| Global print level                                               MEDIUM
 GLOBAL| MPI I/O enabled                                                       T
 GLOBAL| Total number of message passing processes                            56
 GLOBAL| Number of threads for this process                                    1
 GLOBAL| This output is from process                                           0
 GLOBAL| Stack size for threads created by OpenMP (OMP_STACKSIZE)        default
 GLOBAL| CPU model name                 Intel(R) Xeon(R) Gold 6348 CPU @ 2.60GHz
 GLOBAL| CPUID                                                              1003

 MEMORY| system memory details [Kb]
 MEMORY|                        rank 0           min           max       average
 MEMORY| MemTotal            263245640     263245640     263245640     263245640
 MEMORY| MemFree             249786004     249786004     249788048     249786882
 MEMORY| Buffers                     0             0             0             0
 MEMORY| Cached                3313184       3313184       3313184       3313184
 MEMORY| Slab                  3037792       3037792       3037792       3037792
 MEMORY| SReclaimable          1268572       1268572       1268572       1268572
 MEMORY| MemLikelyFree       254367760     254367760     254369804     254368638


 *** Fundamental physical constants (SI units) ***

 *** Literature: B. J. Mohr and B. N. Taylor,
 ***             CODATA recommended values of the fundamental physical
 ***             constants: 2006, Web Version 5.1
 ***             http://physics.nist.gov/constants

 Speed of light in vacuum [m/s]                             2.99792458000000E+08
 Magnetic constant or permeability of vacuum [N/A**2]       1.25663706143592E-06
 Electric constant or permittivity of vacuum [F/m]          8.85418781762039E-12
 Planck constant (h) [J*s]                                  6.62606896000000E-34
 Planck constant (h-bar) [J*s]                              1.05457162825177E-34
 Elementary charge [C]                                      1.60217648700000E-19
 Electron mass [kg]                                         9.10938215000000E-31
 Electron g factor [ ]                                     -2.00231930436220E+00
 Proton mass [kg]                                           1.67262163700000E-27
 Fine-structure constant                                    7.29735253760000E-03
 Rydberg constant [1/m]                                     1.09737315685270E+07
 Avogadro constant [1/mol]                                  6.02214179000000E+23
 Boltzmann constant [J/K]                                   1.38065040000000E-23
 Atomic mass unit [kg]                                      1.66053878200000E-27
 Bohr radius [m]                                            5.29177208590000E-11

 *** Conversion factors ***

 [u] -> [a.u.]                                              1.82288848426455E+03
 [Angstrom] -> [Bohr] = [a.u.]                              1.88972613288564E+00
 [a.u.] = [Bohr] -> [Angstrom]                              5.29177208590000E-01
 [a.u.] -> [s]                                              2.41888432650478E-17
 [a.u.] -> [fs]                                             2.41888432650478E-02
 [a.u.] -> [J]                                              4.35974393937059E-18
 [a.u.] -> [N]                                              8.23872205491840E-08
 [a.u.] -> [K]                                              3.15774647902944E+05
 [a.u.] -> [kJ/mol]                                         2.62549961709828E+03
 [a.u.] -> [kcal/mol]                                       6.27509468713739E+02
 [a.u.] -> [Pa]                                             2.94210107994716E+13
 [a.u.] -> [bar]                                            2.94210107994716E+08
 [a.u.] -> [atm]                                            2.90362800883016E+08
 [a.u.] -> [eV]                                             2.72113838565563E+01
 [a.u.] -> [Hz]                                             6.57968392072181E+15
 [a.u.] -> [1/cm] (wave numbers)                            2.19474631370540E+05
 [a.u./Bohr**2] -> [1/cm]                                   5.14048714338585E+03
 

 CELL_TOP| Volume [angstrom^3]:                                     20673.707390
 CELL_TOP| Vector a [angstrom    21.821     0.000     0.000   |a| =    21.820690
 CELL_TOP| Vector b [angstrom     0.000    21.821     0.000   |b| =    21.820690
 CELL_TOP| Vector c [angstrom     0.000     0.000    43.419   |c| =    43.419161
 CELL_TOP| Angle (b,c), alpha [degree]:                                90.000000
 CELL_TOP| Angle (a,c), beta  [degree]:                                90.000000
 CELL_TOP| Angle (a,b), gamma [degree]:                                90.000000
 CELL_TOP| Numerically orthorhombic:                                         YES
 CELL_TOP| Periodicity                                                       XYZ
 
 GENERATE|  Preliminary Number of Bonds generated:                             0
 GENERATE|  Achieved consistency in connectivity generation.

 CELL| Volume [angstrom^3]:                                         20673.707390
 CELL| Vector a [angstrom]:      21.821     0.000     0.000   |a| =    21.820690
 CELL| Vector b [angstrom]:       0.000    21.821     0.000   |b| =    21.820690
 CELL| Vector c [angstrom]:       0.000     0.000    43.419   |c| =    43.419161
 CELL| Angle (b,c), alpha [degree]:                                    90.000000
 CELL| Angle (a,c), beta  [degree]:                                    90.000000
 CELL| Angle (a,b), gamma [degree]:                                    90.000000
 CELL| Numerically orthorhombic:                                             YES
 CELL| Periodicity                                                           XYZ

 CELL_REF| Volume [angstrom^3]:                                     20673.707390
 CELL_REF| Vector a [angstrom    21.821     0.000     0.000   |a| =    21.820690
 CELL_REF| Vector b [angstrom     0.000    21.821     0.000   |b| =    21.820690
 CELL_REF| Vector c [angstrom     0.000     0.000    43.419   |c| =    43.419161
 CELL_REF| Angle (b,c), alpha [degree]:                                90.000000
 CELL_REF| Angle (a,c), beta  [degree]:                                90.000000
 CELL_REF| Angle (a,b), gamma [degree]:                                90.000000
 CELL_REF| Numerically orthorhombic:                                         YES
 CELL_REF| Periodicity                                                       XYZ

 *******************************************************************************
 *******************************************************************************
 **                                                                           **
 **     #####                         ##              ##                      **
 **    ##   ##            ##          ##              ##                      **
 **   ##     ##                       ##            ######                    **
 **   ##     ##  ##   ##  ##   #####  ##  ##   ####   ##    #####    #####    **
 **   ##     ##  ##   ##  ##  ##      ## ##   ##      ##   ##   ##  ##   ##   **
 **   ##  ## ##  ##   ##  ##  ##      ####     ###    ##   ######   ######    **
 **    ##  ###   ##   ##  ##  ##      ## ##      ##   ##   ##       ##        **
 **     #######   #####   ##   #####  ##  ##  ####    ##    #####   ##        **
 **           ##                                                    ##        **
 **                                                                           **
 **                                                ... make the atoms dance   **
 **                                                                           **
 **            Copyright (C) by CP2K developers group (2000-2024)             **
 **                      J. Chem. Phys. 152, 194103 (2020)                    **
 **                                                                           **
 *******************************************************************************

 DFT| Spin restricted Kohn-Sham (RKS) calculation                            RKS
 DFT| Multiplicity                                                             1
 DFT| Number of spin states                                                    1
 DFT| Charge                                                                   0
 DFT| Self-interaction correction (SIC)                                       NO
 DFT| Cutoffs: density                                              1.000000E-10
 DFT|          gradient                                             1.000000E-10
 DFT|          tau                                                  1.000000E-10
 DFT|          cutoff_smoothing_range                               0.000000E+00
 DFT| XC density smoothing                                                  NONE
 DFT| XC derivatives                                                          PW

 FUNCTIONAL| PBE:
 FUNCTIONAL| J.P.Perdew, K.Burke, M.Ernzerhof, Phys. Rev. Letter, vol. 77, n 18,
 FUNCTIONAL|  pp. 3865-3868, (1996) {spin unpolarized}                          

 vdW POTENTIAL|                                                   Pair Potential
 vdW POTENTIAL|          DFT-D3 (Version 3.1)
 vdW POTENTIAL|          Potential Form: S. Grimme et al, JCP 132: 154104 (2010)
 vdW POTENTIAL|          Zero Damping
 vdW POTENTIAL|          Cutoff Radius [Bohr]:                             30.24
 vdW POTENTIAL|          s6 Scaling Factor:                               1.0000
 vdW POTENTIAL|          sr6 Scaling Factor:                              1.2170
 vdW POTENTIAL|          s8 Scaling Factor:                               0.7220
 vdW POTENTIAL|          Cutoff for CN calculation:                   0.1000E-05

 QS| Method:                                                                 GPW
 QS| Density plane wave grid type                        NON-SPHERICAL FULLSPACE
 QS| Number of grid levels:                                                    4
 QS| Density cutoff [a.u.]:                                                250.0
 QS| Multi grid cutoff [a.u.]: 1) grid level                               250.0
 QS|                           2) grid level                                83.3
 QS|                           3) grid level                                27.8
 QS|                           4) grid level                                 9.3
 QS| Grid level progression factor:                                          3.0
 QS| Relative density cutoff [a.u.]:                                        25.0
 QS| Interaction thresholds: eps_pgf_orb:                                1.0E-05
 QS|                         eps_filter_matrix:                          0.0E+00
 QS|                         eps_core_charge:                            1.0E-12
 QS|                         eps_rho_gspace:                             1.0E-10
 QS|                         eps_rho_rspace:                             1.0E-10
 QS|                         eps_gvg_rspace:                             1.0E-05
 QS|                         eps_ppl:                                    1.0E-02
 QS|                         eps_ppnl:                                   1.0E-07


 ATOMIC KIND INFORMATION

  1. Atomic kind: Li                                    Number of atoms:     249

     Orbital Basis Set                                     DZVP-MOLOPT-SR-GTH-q3

       Number of orbital shell sets:                                           1
       Number of orbital shells:                                               4
       Number of primitive Cartesian functions:                                5
       Number of Cartesian basis functions:                                    6
       Number of spherical basis functions:                                    6
       Norm type:                                                              2

       Normalised Cartesian orbitals:

                        Set   Shell   Orbital            Exponent    Coefficient

                          1       1    2s                7.133128       0.845417
                                                         1.999997       0.491024
                                                         0.612031       0.147779
                                                         0.084367       0.023020
                                                         0.032613       0.006029

                          1       2    3s                7.133128       0.356560
                                                         1.999997       0.274758
                                                         0.612031       0.123518
                                                         0.084367      -0.073250
                                                         0.032613      -0.022874

                          1       3    4s                7.133128      -0.506239
                                                         1.999997      -0.114387
                                                         0.612031      -0.015464
                                                         0.084367      -0.188013
                                                         0.032613       0.089984

                          1       4    3px               7.133128      -0.353696
                                                         1.999997      -0.012401
                                                         0.612031      -0.242249
                                                         0.084367      -0.056703
                                                         0.032613       0.000856
                          1       4    3py               7.133128      -0.353696
                                                         1.999997      -0.012401
                                                         0.612031      -0.242249
                                                         0.084367      -0.056703
                                                         0.032613       0.000856
                          1       4    3pz               7.133128      -0.353696
                                                         1.999997      -0.012401
                                                         0.612031      -0.242249
                                                         0.084367      -0.056703
                                                         0.032613       0.000856

       Atomic covalent radius [Angstrom]:                                  1.230

       Atomic van der Waals radius [Angstrom]:                             1.820

     GTH Potential information for                                       GTH-PBE

       Description:                       Goedecker-Teter-Hutter pseudopotential
                                           Goedecker et al., PRB 54, 1703 (1996)
                                          Hartwigsen et al., PRB 58, 3641 (1998)
                                                      Krack, TCA 114, 145 (2005)

       Gaussian exponent of the core charge distribution:               3.125000
       Electronic configuration (s p d ...):                                   3

       Parameters of the local part of the GTH pseudopotential:

                          rloc        C1          C2          C3          C4
                        0.400000  -14.081155    9.626220   -1.783616    0.085152

  2. Atomic kind: C                                     Number of atoms:     132

     Orbital Basis Set                                     DZVP-MOLOPT-SR-GTH-q4

       Number of orbital shell sets:                                           1
       Number of orbital shells:                                               5
       Number of primitive Cartesian functions:                                5
       Number of Cartesian basis functions:                                   14
       Number of spherical basis functions:                                   13
       Norm type:                                                              2

       Normalised Cartesian orbitals:

                        Set   Shell   Orbital            Exponent    Coefficient

                          1       1    2s                5.605331       0.322515
                                                         2.113016       0.213043
                                                         0.769911      -0.209686
                                                         0.348157      -0.219794
                                                         0.128212      -0.022789

                          1       2    3s                5.605331       0.552234
                                                         2.113016       0.082072
                                                         0.769911       0.007843
                                                         0.348157       0.136893
                                                         0.128212       0.074283

                          1       3    3px               5.605331      -0.703879
                                                         2.113016      -0.642521
                                                         0.769911      -0.374851
                                                         0.348157      -0.139743
                                                         0.128212      -0.027849
                          1       3    3py               5.605331      -0.703879
                                                         2.113016      -0.642521
                                                         0.769911      -0.374851
                                                         0.348157      -0.139743
                                                         0.128212      -0.027849
                          1       3    3pz               5.605331      -0.703879
                                                         2.113016      -0.642521
                                                         0.769911      -0.374851
                                                         0.348157      -0.139743
                                                         0.128212      -0.027849

                          1       4    4px               5.605331      -0.480376
                                                         2.113016      -0.552894
                                                         0.769911      -0.316145
                                                         0.348157       0.210505
                                                         0.128212       0.076095
                          1       4    4py               5.605331      -0.480376
                                                         2.113016      -0.552894
                                                         0.769911      -0.316145
                                                         0.348157       0.210505
                                                         0.128212       0.076095
                          1       4    4pz               5.605331      -0.480376
                                                         2.113016      -0.552894
                                                         0.769911      -0.316145
                                                         0.348157       0.210505
                                                         0.128212       0.076095

                          1       5    4dx2              5.605331       0.640026
                                                         2.113016       0.274300
                                                         0.769911       0.446711
                                                         0.348157       0.028674
                                                         0.128212       0.029790
                          1       5    4dxy              5.605331       1.108557
                                                         2.113016       0.475102
                                                         0.769911       0.773726
                                                         0.348157       0.049666
                                                         0.128212       0.051599
                          1       5    4dxz              5.605331       1.108557
                                                         2.113016       0.475102
                                                         0.769911       0.773726
                                                         0.348157       0.049666
                                                         0.128212       0.051599
                          1       5    4dy2              5.605331       0.640026
                                                         2.113016       0.274300
                                                         0.769911       0.446711
                                                         0.348157       0.028674
                                                         0.128212       0.029790
                          1       5    4dyz              5.605331       1.108557
                                                         2.113016       0.475102
                                                         0.769911       0.773726
                                                         0.348157       0.049666
                                                         0.128212       0.051599
                          1       5    4dz2              5.605331       0.640026
                                                         2.113016       0.274300
                                                         0.769911       0.446711
                                                         0.348157       0.028674
                                                         0.128212       0.029790

       Atomic covalent radius [Angstrom]:                                  0.770

       Atomic van der Waals radius [Angstrom]:                             1.700

     GTH Potential information for                                       GTH-PBE

       Description:                       Goedecker-Teter-Hutter pseudopotential
                                           Goedecker et al., PRB 54, 1703 (1996)
                                          Hartwigsen et al., PRB 58, 3641 (1998)
                                                      Krack, TCA 114, 145 (2005)

       Gaussian exponent of the core charge distribution:               4.364419
       Electronic configuration (s p d ...):                               2   2

       Parameters of the local part of the GTH pseudopotential:

                          rloc        C1          C2          C3          C4
                        0.338471   -8.803674    1.339211

       Parameters of the non-local part of the GTH pseudopotential:

                   l      r(l)      h(i,j,l)

                   0    0.302576    9.622487
                   1    0.291507

  3. Atomic kind: O                                     Number of atoms:     198

     Orbital Basis Set                                     DZVP-MOLOPT-SR-GTH-q6

       Number of orbital shell sets:                                           1
       Number of orbital shells:                                               5
       Number of primitive Cartesian functions:                                5
       Number of Cartesian basis functions:                                   14
       Number of spherical basis functions:                                   13
       Norm type:                                                              2

       Normalised Cartesian orbitals:

                        Set   Shell   Orbital            Exponent    Coefficient

                          1       1    2s               10.389228       0.396646
                                                         3.849621       0.208811
                                                         1.388401      -0.301641
                                                         0.496955      -0.274061
                                                         0.162492      -0.033677

                          1       2    3s               10.389228       0.303673
                                                         3.849621       0.240943
                                                         1.388401      -0.313066
                                                         0.496955      -0.043055
                                                         0.162492       0.213991

                          1       3    3px              10.389228      -1.530415
                                                         3.849621      -1.371928
                                                         1.388401      -0.761951
                                                         0.496955      -0.253695
                                                         0.162492      -0.035541
                          1       3    3py              10.389228      -1.530415
                                                         3.849621      -1.371928
                                                         1.388401      -0.761951
                                                         0.496955      -0.253695
                                                         0.162492      -0.035541
                          1       3    3pz              10.389228      -1.530415
                                                         3.849621      -1.371928
                                                         1.388401      -0.761951
                                                         0.496955      -0.253695
                                                         0.162492      -0.035541

                          1       4    4px              10.389228      -0.565392
                                                         3.849621      -0.038231
                                                         1.388401      -0.382373
                                                         0.496955       0.179070
                                                         0.162492       0.122714
                          1       4    4py              10.389228      -0.565392
                                                         3.849621      -0.038231
                                                         1.388401      -0.382373
                                                         0.496955       0.179070
                                                         0.162492       0.122714
                          1       4    4pz              10.389228      -0.565392
                                                         3.849621      -0.038231
                                                         1.388401      -0.382373
                                                         0.496955       0.179070
                                                         0.162492       0.122714

                          1       5    4dx2             10.389228       1.867377
                                                         3.849621       0.670994
                                                         1.388401       1.353441
                                                         0.496955       0.273538
                                                         0.162492       0.006620
                          1       5    4dxy             10.389228       3.234392
                                                         3.849621       1.162195
                                                         1.388401       2.344229
                                                         0.496955       0.473781
                                                         0.162492       0.011466
                          1       5    4dxz             10.389228       3.234392
                                                         3.849621       1.162195
                                                         1.388401       2.344229
                                                         0.496955       0.473781
                                                         0.162492       0.011466
                          1       5    4dy2             10.389228       1.867377
                                                         3.849621       0.670994
                                                         1.388401       1.353441
                                                         0.496955       0.273538
                                                         0.162492       0.006620
                          1       5    4dyz             10.389228       3.234392
                                                         3.849621       1.162195
                                                         1.388401       2.344229
                                                         0.496955       0.473781
                                                         0.162492       0.011466
                          1       5    4dz2             10.389228       1.867377
                                                         3.849621       0.670994
                                                         1.388401       1.353441
                                                         0.496955       0.273538
                                                         0.162492       0.006620

       Atomic covalent radius [Angstrom]:                                  0.730

       Atomic van der Waals radius [Angstrom]:                             1.520

     GTH Potential information for                                       GTH-PBE

       Description:                       Goedecker-Teter-Hutter pseudopotential
                                           Goedecker et al., PRB 54, 1703 (1996)
                                          Hartwigsen et al., PRB 58, 3641 (1998)
                                                      Krack, TCA 114, 145 (2005)

       Gaussian exponent of the core charge distribution:               8.360253
       Electronic configuration (s p d ...):                               2   4

       Parameters of the local part of the GTH pseudopotential:

                          rloc        C1          C2          C3          C4
                        0.244554  -16.667215    2.487311

       Parameters of the non-local part of the GTH pseudopotential:

                   l      r(l)      h(i,j,l)

                   0    0.220956   18.337458
                   1    0.211332

  4. Atomic kind: H                                     Number of atoms:     330

     Orbital Basis Set                                     DZVP-MOLOPT-SR-GTH-q1

       Number of orbital shell sets:                                           1
       Number of orbital shells:                                               3
       Number of primitive Cartesian functions:                                5
       Number of Cartesian basis functions:                                    5
       Number of spherical basis functions:                                    5
       Norm type:                                                              2

       Normalised Cartesian orbitals:

                        Set   Shell   Orbital            Exponent    Coefficient

                          1       1    2s               10.068468      -0.133023
                                                         2.680223      -0.177618
                                                         0.791502      -0.258419
                                                         0.239116      -0.107525
                                                         0.082193      -0.014019

                          1       2    3s               10.068468       0.344673
                                                         2.680223       1.819821
                                                         0.791502      -0.999069
                                                         0.239116       0.017430
                                                         0.082193       0.082660

                          1       3    3px              10.068468       0.155326
                                                         2.680223       0.367157
                                                         0.791502       0.311480
                                                         0.239116       0.080105
                                                         0.082193       0.033440
                          1       3    3py              10.068468       0.155326
                                                         2.680223       0.367157
                                                         0.791502       0.311480
                                                         0.239116       0.080105
                                                         0.082193       0.033440
                          1       3    3pz              10.068468       0.155326
                                                         2.680223       0.367157
                                                         0.791502       0.311480
                                                         0.239116       0.080105
                                                         0.082193       0.033440

       Atomic covalent radius [Angstrom]:                                  0.320

       Atomic van der Waals radius [Angstrom]:                             1.090

     GTH Potential information for                                       GTH-PBE

       Description:                       Goedecker-Teter-Hutter pseudopotential
                                           Goedecker et al., PRB 54, 1703 (1996)
                                          Hartwigsen et al., PRB 58, 3641 (1998)
                                                      Krack, TCA 114, 145 (2005)

       Gaussian exponent of the core charge distribution:              12.500000
       Electronic configuration (s p d ...):                                   1

       Parameters of the local part of the GTH pseudopotential:

                          rloc        C1          C2          C3          C4
                        0.200000   -4.178900    0.724463

  5. Atomic kind: N                                     Number of atoms:      33

     Orbital Basis Set                                     DZVP-MOLOPT-SR-GTH-q5

       Number of orbital shell sets:                                           1
       Number of orbital shells:                                               5
       Number of primitive Cartesian functions:                                5
       Number of Cartesian basis functions:                                   14
       Number of spherical basis functions:                                   13
       Norm type:                                                              2

       Normalised Cartesian orbitals:

                        Set   Shell   Orbital            Exponent    Coefficient

                          1       1    2s                7.341988       0.360561
                                                         2.542637       0.139177
                                                         0.888575      -0.289383
                                                         0.333802      -0.182244
                                                         0.112012      -0.019197

                          1       2    3s                7.341988       0.282000
                                                         2.542637       0.177875
                                                         0.888575      -0.278381
                                                         0.333802       0.008577
                                                         0.112012       0.154176

                          1       3    3px               7.341988      -1.188719
                                                         2.542637      -0.973969
                                                         0.888575      -0.501079
                                                         0.333802      -0.144894
                                                         0.112012      -0.013986
                          1       3    3py               7.341988      -1.188719
                                                         2.542637      -0.973969
                                                         0.888575      -0.501079
                                                         0.333802      -0.144894
                                                         0.112012      -0.013986
                          1       3    3pz               7.341988      -1.188719
                                                         2.542637      -0.973969
                                                         0.888575      -0.501079
                                                         0.333802      -0.144894
                                                         0.112012      -0.013986

                          1       4    4px               7.341988      -0.094798
                                                         2.542637       0.050069
                                                         0.888575      -0.114797
                                                         0.333802       0.144793
                                                         0.112012       0.066710
                          1       4    4py               7.341988      -0.094798
                                                         2.542637       0.050069
                                                         0.888575      -0.114797
                                                         0.333802       0.144793
                                                         0.112012       0.066710
                          1       4    4pz               7.341988      -0.094798
                                                         2.542637       0.050069
                                                         0.888575      -0.114797
                                                         0.333802       0.144793
                                                         0.112012       0.066710

                          1       5    4dx2              7.341988       1.354688
                                                         2.542637       0.690378
                                                         0.888575       0.855359
                                                         0.333802       0.091746
                                                         0.112012       0.001253
                          1       5    4dxy              7.341988       2.346389
                                                         2.542637       1.195770
                                                         0.888575       1.481524
                                                         0.333802       0.158910
                                                         0.112012       0.002169
                          1       5    4dxz              7.341988       2.346389
                                                         2.542637       1.195770
                                                         0.888575       1.481524
                                                         0.333802       0.158910
                                                         0.112012       0.002169
                          1       5    4dy2              7.341988       1.354688
                                                         2.542637       0.690378
                                                         0.888575       0.855359
                                                         0.333802       0.091746
                                                         0.112012       0.001253
                          1       5    4dyz              7.341988       2.346389
                                                         2.542637       1.195770
                                                         0.888575       1.481524
                                                         0.333802       0.158910
                                                         0.112012       0.002169
                          1       5    4dz2              7.341988       1.354688
                                                         2.542637       0.690378
                                                         0.888575       0.855359
                                                         0.333802       0.091746
                                                         0.112012       0.001253

       Atomic covalent radius [Angstrom]:                                  0.750

       Atomic van der Waals radius [Angstrom]:                             1.550

     GTH Potential information for                                       GTH-PBE

       Description:                       Goedecker-Teter-Hutter pseudopotential
                                           Goedecker et al., PRB 54, 1703 (1996)
                                          Hartwigsen et al., PRB 58, 3641 (1998)
                                                      Krack, TCA 114, 145 (2005)

       Gaussian exponent of the core charge distribution:               6.208322
       Electronic configuration (s p d ...):                               2   3

       Parameters of the local part of the GTH pseudopotential:

                          rloc        C1          C2          C3          C4
                        0.283791  -12.415226    1.868096

       Parameters of the non-local part of the GTH pseudopotential:

                   l      r(l)      h(i,j,l)

                   0    0.255405   13.630263
                   1    0.245495

  6. Atomic kind: S                                     Number of atoms:      66

     Orbital Basis Set                                     DZVP-MOLOPT-SR-GTH-q6

       Number of orbital shell sets:                                           1
       Number of orbital shells:                                               5
       Number of primitive Cartesian functions:                                4
       Number of Cartesian basis functions:                                   14
       Number of spherical basis functions:                                   13
       Norm type:                                                              2

       Normalised Cartesian orbitals:

                        Set   Shell   Orbital            Exponent    Coefficient

                          1       1    2s                2.215855       0.308496
                                                         1.131471       0.138505
                                                         0.410168      -0.373736
                                                         0.140587      -0.040370

                          1       2    3s                2.215855      -0.329528
                                                         1.131471      -0.517509
                                                         0.410168       0.787368
                                                         0.140587      -0.322786

                          1       3    3px               2.215855       0.420434
                                                         1.131471      -0.319283
                                                         0.410168      -0.335323
                                                         0.140587      -0.030976
                          1       3    3py               2.215855       0.420434
                                                         1.131471      -0.319283
                                                         0.410168      -0.335323
                                                         0.140587      -0.030976
                          1       3    3pz               2.215855       0.420434
                                                         1.131471      -0.319283
                                                         0.410168      -0.335323
                                                         0.140587      -0.030976

                          1       4    4px               2.215855       0.241296
                                                         1.131471      -0.170582
                                                         0.410168      -0.186977
                                                         0.140587       0.153509
                          1       4    4py               2.215855       0.241296
                                                         1.131471      -0.170582
                                                         0.410168      -0.186977
                                                         0.140587       0.153509
                          1       4    4pz               2.215855       0.241296
                                                         1.131471      -0.170582
                                                         0.410168      -0.186977
                                                         0.140587       0.153509

                          1       5    4dx2              2.215855       0.573559
                                                         1.131471       0.544926
                                                         0.410168       0.228284
                                                         0.140587       0.008811
                          1       5    4dxy              2.215855       0.993434
                                                         1.131471       0.943840
                                                         0.410168       0.395400
                                                         0.140587       0.015260
                          1       5    4dxz              2.215855       0.993434
                                                         1.131471       0.943840
                                                         0.410168       0.395400
                                                         0.140587       0.015260
                          1       5    4dy2              2.215855       0.573559
                                                         1.131471       0.544926
                                                         0.410168       0.228284
                                                         0.140587       0.008811
                          1       5    4dyz              2.215855       0.993434
                                                         1.131471       0.943840
                                                         0.410168       0.395400
                                                         0.140587       0.015260
                          1       5    4dz2              2.215855       0.573559
                                                         1.131471       0.544926
                                                         0.410168       0.228284
                                                         0.140587       0.008811

       Atomic covalent radius [Angstrom]:                                  1.020

       Atomic van der Waals radius [Angstrom]:                             1.800

     GTH Potential information for                                       GTH-PBE

       Description:                       Goedecker-Teter-Hutter pseudopotential
                                           Goedecker et al., PRB 54, 1703 (1996)
                                          Hartwigsen et al., PRB 58, 3641 (1998)
                                                      Krack, TCA 114, 145 (2005)

       Gaussian exponent of the core charge distribution:               2.834467
       Electronic configuration (s p d ...):                               2   4

       Parameters of the local part of the GTH pseudopotential:

                          rloc        C1          C2          C3          C4
                        0.420000   -5.986260

       Parameters of the non-local part of the GTH pseudopotential:

                   l      r(l)      h(i,j,l)

                   0    0.364820   13.143544   -4.241830
                                   -4.241830    5.476180
                   1    0.409480    3.700891

  7. Atomic kind: F                                     Number of atoms:      66

     Orbital Basis Set                                     DZVP-MOLOPT-SR-GTH-q7

       Number of orbital shell sets:                                           1
       Number of orbital shells:                                               5
       Number of primitive Cartesian functions:                                5
       Number of Cartesian basis functions:                                   14
       Number of spherical basis functions:                                   13
       Norm type:                                                              2

       Normalised Cartesian orbitals:

                        Set   Shell   Orbital            Exponent    Coefficient

                          1       1    2s               13.701521       0.466640
                                                         5.098269       0.275181
                                                         1.837941      -0.385817
                                                         0.631759      -0.323188
                                                         0.202027      -0.041057

                          1       2    3s               13.701521       0.812914
                                                         5.098269       0.409868
                                                         1.837941      -0.484144
                                                         0.631759      -0.510807
                                                         0.202027       0.323394

                          1       3    3px              13.701521      -2.132362
                                                         5.098269      -1.951997
                                                         1.837941      -1.094976
                                                         0.631759      -0.344511
                                                         0.202027      -0.046836
                          1       3    3py              13.701521      -2.132362
                                                         5.098269      -1.951997
                                                         1.837941      -1.094976
                                                         0.631759      -0.344511
                                                         0.202027      -0.046836
                          1       3    3pz              13.701521      -2.132362
                                                         5.098269      -1.951997
                                                         1.837941      -1.094976
                                                         0.631759      -0.344511
                                                         0.202027      -0.046836

                          1       4    4px              13.701521      -2.306567
                                                         5.098269      -1.843421
                                                         1.837941      -1.245905
                                                         0.631759      -0.318382
                                                         0.202027       0.198065
                          1       4    4py              13.701521      -2.306567
                                                         5.098269      -1.843421
                                                         1.837941      -1.245905
                                                         0.631759      -0.318382
                                                         0.202027       0.198065
                          1       4    4pz              13.701521      -2.306567
                                                         5.098269      -1.843421
                                                         1.837941      -1.245905
                                                         0.631759      -0.318382
                                                         0.202027       0.198065

                          1       5    4dx2             13.701521       1.831894
                                                         5.098269       1.226066
                                                         1.837941       1.533195
                                                         0.631759       0.583867
                                                         0.202027      -0.008805
                          1       5    4dxy             13.701521       3.172934
                                                         5.098269       2.123609
                                                         1.837941       2.655572
                                                         0.631759       1.011287
                                                         0.202027      -0.015251
                          1       5    4dxz             13.701521       3.172934
                                                         5.098269       2.123609
                                                         1.837941       2.655572
                                                         0.631759       1.011287
                                                         0.202027      -0.015251
                          1       5    4dy2             13.701521       1.831894
                                                         5.098269       1.226066
                                                         1.837941       1.533195
                                                         0.631759       0.583867
                                                         0.202027      -0.008805
                          1       5    4dyz             13.701521       3.172934
                                                         5.098269       2.123609
                                                         1.837941       2.655572
                                                         0.631759       1.011287
                                                         0.202027      -0.015251
                          1       5    4dz2             13.701521       1.831894
                                                         5.098269       1.226066
                                                         1.837941       1.533195
                                                         0.631759       0.583867
                                                         0.202027      -0.008805

       Atomic covalent radius [Angstrom]:                                  0.720

       Atomic van der Waals radius [Angstrom]:                             1.470

     GTH Potential information for                                       GTH-PBE

       Description:                       Goedecker-Teter-Hutter pseudopotential
                                           Goedecker et al., PRB 54, 1703 (1996)
                                          Hartwigsen et al., PRB 58, 3641 (1998)
                                                      Krack, TCA 114, 145 (2005)

       Gaussian exponent of the core charge distribution:              10.823746
       Electronic configuration (s p d ...):                               2   5

       Parameters of the local part of the GTH pseudopotential:

                          rloc        C1          C2          C3          C4
                        0.214930  -21.573028    3.199776

       Parameters of the non-local part of the GTH pseudopotential:

                   l      r(l)      h(i,j,l)

                   0    0.194684   23.743540
                   1    0.186156


 MOLECULE KIND INFORMATION


 All atoms are their own molecule, skipping detailed information


 TOTAL NUMBERS AND MAXIMUM NUMBERS

  Total number of            - Atomic kinds:                                   7
                             - Atoms:                                       1074
                             - Shell sets:                                  1074
                             - Shells:                                      4461
                             - Primitive Cartesian functions:               5304
                             - Cartesian basis functions:                  10074
                             - Spherical basis functions:                   9579

  Maximum angular momentum of- Orbital basis functions:                        2
                             - Local part of the GTH pseudopotential:          6
                             - Non-local part of the GTH pseudopotential:      2


 MODULE QUICKSTEP: ATOMIC COORDINATES IN ANGSTROM

   Atom Kind Element         X             Y             Z       Z(eff)     Mass
      1    1 Li    3      1.781057      1.810235      1.842180   3.0000   6.9410
      2    1 Li    3      5.440190      1.801973      1.803719   3.0000   6.9410
      3    1 Li    3      9.066580      1.781237      1.900437   3.0000   6.9410
      4    1 Li    3     12.671267      1.849855      1.894768   3.0000   6.9410
      5    1 Li    3     16.336722      1.832388      1.845366   3.0000   6.9410
      6    1 Li    3     19.975156      1.876864      1.819974   3.0000   6.9410
      7    1 Li    3      1.791543      5.492615      1.759533   3.0000   6.9410
      8    1 Li    3      5.409903      5.427634      1.773055   3.0000   6.9410
      9    1 Li    3      9.132197      5.420489      1.810892   3.0000   6.9410
     10    1 Li    3     12.811994      5.431742      1.802387   3.0000   6.9410
     11    1 Li    3     16.433787      5.430549      1.848954   3.0000   6.9410
     12    1 Li    3     19.990553      5.508179      1.819986   3.0000   6.9410
     13    1 Li    3      1.834532      9.046411      1.789752   3.0000   6.9410
     14    1 Li    3      5.447247      9.131814      1.814323   3.0000   6.9410
     15    1 Li    3      9.165792      9.096611      1.898097   3.0000   6.9410
     16    1 Li    3     12.754359      9.107086      1.814667   3.0000   6.9410
     17    1 Li    3     16.307614      9.139975      1.804782   3.0000   6.9410
     18    1 Li    3     20.020691      9.109872      1.840580   3.0000   6.9410
     19    1 Li    3      1.820809     12.723320      1.792277   3.0000   6.9410
     20    1 Li    3      5.493100     12.751451      1.843315   3.0000   6.9410
     21    1 Li    3      9.088447     12.815181      1.773814   3.0000   6.9410
     22    1 Li    3     12.730769     12.714230      1.878302   3.0000   6.9410
     23    1 Li    3     16.367958     12.708438      1.706997   3.0000   6.9410
     24    1 Li    3     19.993550     12.737788      1.775809   3.0000   6.9410
     25    1 Li    3      1.852120     16.342631      1.879668   3.0000   6.9410
     26    1 Li    3      5.497160     16.420896      1.840978   3.0000   6.9410
     27    1 Li    3      9.032149     16.387926      1.833526   3.0000   6.9410
     28    1 Li    3     12.732384     16.369489      1.752318   3.0000   6.9410
     29    1 Li    3     16.357723     16.393135      1.768597   3.0000   6.9410
     30    1 Li    3     20.005470     16.352779      1.816096   3.0000   6.9410
     31    1 Li    3      1.871324     20.042214      1.792094   3.0000   6.9410
     32    1 Li    3      5.480902     20.045421      1.902829   3.0000   6.9410
     33    1 Li    3      9.139278     20.053445      1.833660   3.0000   6.9410
     34    1 Li    3     12.691955     19.975335      1.896246   3.0000   6.9410
     35    1 Li    3     16.395386     19.977688      1.769043   3.0000   6.9410
     36    1 Li    3     19.959399     20.011429      1.749735   3.0000   6.9410
     37    1 Li    3      0.034617     10.894452      3.429712   3.0000   6.9410
     38    1 Li    3     10.983328      3.660811      3.449171   3.0000   6.9410
     39    1 Li    3      3.625887     10.910977      3.387856   3.0000   6.9410
     40    1 Li    3      7.272505      0.007750      3.455544   3.0000   6.9410
     41    1 Li    3      7.279969     10.848114      3.426775   3.0000   6.9410
     42    1 Li    3     14.505199      3.616498      3.425364   3.0000   6.9410
     43    1 Li    3     10.892637     10.896029      3.458967   3.0000   6.9410
     44    1 Li    3     18.159399     -0.001429      3.380742   3.0000   6.9410
     45    1 Li    3     14.481358     10.909688      3.438001   3.0000   6.9410
     46    1 Li    3     18.163628      3.599588      3.472007   3.0000   6.9410
     47    1 Li    3     18.195168     10.829384      3.467887   3.0000   6.9410
     48    1 Li    3      3.697033      0.001625      3.386215   3.0000   6.9410
     49    1 Li    3     -0.009347     14.533719      3.473313   3.0000   6.9410
     50    1 Li    3     -0.018960      7.288392      3.471250   3.0000   6.9410
     51    1 Li    3      3.635668     14.546877      3.493556   3.0000   6.9410
     52    1 Li    3     -0.040246      3.685155      3.468500   3.0000   6.9410
     53    1 Li    3      7.359230     14.589908      3.450568   3.0000   6.9410
     54    1 Li    3      3.642155      7.284460      3.384906   3.0000   6.9410
     55    1 Li    3     10.899791     14.480842      3.414321   3.0000   6.9410
     56    1 Li    3     10.873199     -0.006635      3.497807   3.0000   6.9410
     57    1 Li    3     14.540047     14.527104      3.519959   3.0000   6.9410
     58    1 Li    3      7.255416      7.329452      3.456361   3.0000   6.9410
     59    1 Li    3     18.179111     14.605242      3.460085   3.0000   6.9410
     60    1 Li    3      3.618954      3.624104      3.427847   3.0000   6.9410
     61    1 Li    3      0.028751     18.229513      3.466711   3.0000   6.9410
     62    1 Li    3     10.867495      7.280558      3.440722   3.0000   6.9410
     63    1 Li    3      3.644923     18.170395      3.488162   3.0000   6.9410
     64    1 Li    3     -0.032095      0.033868      3.409586   3.0000   6.9410
     65    1 Li    3      7.311499     18.130502      3.452099   3.0000   6.9410
     66    1 Li    3     14.513744      7.328590      3.417945   3.0000   6.9410
     67    1 Li    3     10.941843     18.236097      3.497050   3.0000   6.9410
     68    1 Li    3      7.303297      3.703707      3.468879   3.0000   6.9410
     69    1 Li    3     14.557574     18.193028      3.487594   3.0000   6.9410
     70    1 Li    3     18.196434      7.181195      3.477327   3.0000   6.9410
     71    1 Li    3     18.222977     18.275708      3.443972   3.0000   6.9410
     72    1 Li    3     14.510584     -0.019466      3.472149   3.0000   6.9410
     73    1 Li    3     16.294809      5.483851      4.850981   3.0000   6.9410
     74    1 Li    3      5.512357      1.787574      4.842550   3.0000   6.9410
     75    1 Li    3      1.792987     16.347815      4.844464   3.0000   6.9410
     76    1 Li    3     16.292494      9.078451      4.836953   3.0000   6.9410
     77    1 Li    3      5.394756      5.531614      4.853307   3.0000   6.9410
     78    1 Li    3      5.459191     16.308570      4.891913   3.0000   6.9410
     79    1 Li    3     19.991722      5.409288      4.884367   3.0000   6.9410
     80    1 Li    3     20.086205      9.071107      4.855537   3.0000   6.9410
     81    1 Li    3      9.129078     16.445409      4.799261   3.0000   6.9410
     82    1 Li    3     12.745223      1.779791      4.870220   3.0000   6.9410
     83    1 Li    3     19.934714      1.817181      4.853193   3.0000   6.9410
     84    1 Li    3     12.776424     16.400578      4.834864   3.0000   6.9410
     85    1 Li    3      1.802402     12.707934      4.859169   3.0000   6.9410
     86    1 Li    3      1.839163      9.131981      4.871669   3.0000   6.9410
     87    1 Li    3     16.429529     16.361191      4.911100   3.0000   6.9410
     88    1 Li    3      9.059667      5.482091      4.944526   3.0000   6.9410
     89    1 Li    3      5.501187     12.686307      4.867183   3.0000   6.9410
     90    1 Li    3     20.025393     16.357866      4.850085   3.0000   6.9410
     91    1 Li    3      9.091692      1.776957      4.894692   3.0000   6.9410
     92    1 Li    3      5.461956      9.095642      4.863948   3.0000   6.9410
     93    1 Li    3      1.818976     19.927081      4.863105   3.0000   6.9410
     94    1 Li    3      9.121262     12.691095      4.835402   3.0000   6.9410
     95    1 Li    3      1.827010      1.874143      4.891557   3.0000   6.9410
     96    1 Li    3      5.465695     19.995018      4.907851   3.0000   6.9410
     97    1 Li    3     12.747890      5.396770      4.891866   3.0000   6.9410
     98    1 Li    3     12.757980     12.695067      4.873533   3.0000   6.9410
     99    1 Li    3      9.117253     20.003928      4.875550   3.0000   6.9410
    100    1 Li    3      9.053445      9.101364      4.834463   3.0000   6.9410
    101    1 Li    3      1.785544      5.439046      4.919656   3.0000   6.9410
    102    1 Li    3     12.698540     19.988844      4.887106   3.0000   6.9410
    103    1 Li    3     16.320522     12.714806      4.891787   3.0000   6.9410
    104    1 Li    3     16.351315      1.814330      4.988774   3.0000   6.9410
    105    1 Li    3     16.404436     20.004627      4.810136   3.0000   6.9410
    106    1 Li    3     12.749022      9.153835      4.916275   3.0000   6.9410
    107    1 Li    3     19.920870     12.785685      4.810710   3.0000   6.9410
    108    1 Li    3     20.041933     19.998146      4.871765   3.0000   6.9410
    109    1 Li    3      7.275770     10.943280      6.476084   3.0000   6.9410
    110    1 Li    3     10.894115     14.594842      6.468281   3.0000   6.9410
    111    1 Li    3     10.855978      7.255098      6.481017   3.0000   6.9410
    112    1 Li    3      0.055697      3.670170      6.315435   3.0000   6.9410
    113    1 Li    3      3.609914     21.821113      6.439450   3.0000   6.9410
    114    1 Li    3     14.538769     14.588157      6.335225   3.0000   6.9410
    115    1 Li    3     10.954466     10.824895      6.458583   3.0000   6.9410
    116    1 Li    3     21.813376     -0.055121      6.426475   3.0000   6.9410
    117    1 Li    3     14.505979      7.261108      6.451158   3.0000   6.9410
    118    1 Li    3     18.218293     14.558823      6.422222   3.0000   6.9410
    119    1 Li    3      0.029187      7.207509      6.481397   3.0000   6.9410
    120    1 Li    3     14.511942     10.924559      6.440692   3.0000   6.9410
    121    1 Li    3     10.888750      3.663221      6.418380   3.0000   6.9410
    122    1 Li    3     21.780252     18.202886      6.427751   3.0000   6.9410
    123    1 Li    3     18.144741     21.813866      6.445611   3.0000   6.9410
    124    1 Li    3     18.258175      7.246328      6.389634   3.0000   6.9410
    125    1 Li    3     18.196650     10.888041      6.470172   3.0000   6.9410
    126    1 Li    3      3.617093     18.232723      6.382780   3.0000   6.9410
    127    1 Li    3      3.581448      3.594119      6.444168   3.0000   6.9410
    128    1 Li    3      3.625341      7.282646      6.469744   3.0000   6.9410
    129    1 Li    3      7.215085     -0.041111      6.404496   3.0000   6.9410
    130    1 Li    3      7.228374     18.212815      6.379261   3.0000   6.9410
    131    1 Li    3     21.878287     14.555711      6.418199   3.0000   6.9410
    132    1 Li    3     -0.013598     10.911386      6.503660   3.0000   6.9410
    133    1 Li    3     14.591143      3.594733      6.409085   3.0000   6.9410
    134    1 Li    3     10.954349     18.223870      6.414678   3.0000   6.9410
    135    1 Li    3     14.556198     21.814104      6.386731   3.0000   6.9410
    136    1 Li    3      3.615663     14.586381      6.414087   3.0000   6.9410
    137    1 Li    3      7.298031      7.272607      6.447737   3.0000   6.9410
    138    1 Li    3     14.609750     18.191081      6.420542   3.0000   6.9410
    139    1 Li    3      3.648458     10.921881      6.491181   3.0000   6.9410
    140    1 Li    3     10.940425      0.036458      6.448643   3.0000   6.9410
    141    1 Li    3      7.284379     14.631837      6.413822   3.0000   6.9410
    142    1 Li    3     18.200667     18.165677      6.494303   3.0000   6.9410
    143    1 Li    3      7.294647      3.638929      6.453528   3.0000   6.9410
    144    1 Li    3     18.178577      3.592908      6.362007   3.0000   6.9410
    145    1 Li    3     16.344552     16.338829      7.820634   3.0000   6.9410
    146    1 Li    3      5.459852      5.440856      7.856402   3.0000   6.9410
    147    1 Li    3      1.825313     12.745910      7.787720   3.0000   6.9410
    148    1 Li    3     12.699322      5.427889      7.874277   3.0000   6.9410
    149    1 Li    3     19.987392     12.770361      7.854576   3.0000   6.9410
    150    1 Li    3     19.979047     16.360446      7.889964   3.0000   6.9410
    151    1 Li    3      9.157603      1.735226      7.892937   3.0000   6.9410
    152    1 Li    3      1.847690      1.827650      7.833989   3.0000   6.9410
    153    1 Li    3     12.690507      9.081388      7.806094   3.0000   6.9410
    154    1 Li    3      5.397932     12.711404      7.833616   3.0000   6.9410
    155    1 Li    3      1.771014     20.071303      7.832419   3.0000   6.9410
    156    1 Li    3      1.736885     16.421099      7.851046   3.0000   6.9410
    157    1 Li    3      1.875326      9.061850      7.827015   3.0000   6.9410
    158    1 Li    3      1.765576      5.455474      7.856418   3.0000   6.9410
    159    1 Li    3     12.627938      1.810178      7.874018   3.0000   6.9410
    160    1 Li    3      5.414134     20.007976      7.946997   3.0000   6.9410
    161    1 Li    3     16.367333      5.492230      7.827728   3.0000   6.9410
    162    1 Li    3      5.490647     16.413282      7.851666   3.0000   6.9410
    163    1 Li    3      9.124968     12.697996      7.811996   3.0000   6.9410
    164    1 Li    3     16.404708      9.112607      7.797648   3.0000   6.9410
    165    1 Li    3      9.085727     19.960287      7.801247   3.0000   6.9410
    166    1 Li    3      9.050082      5.400037      7.898600   3.0000   6.9410
    167    1 Li    3      5.454677      9.091091      7.863092   3.0000   6.9410
    168    1 Li    3      9.087348     16.375859      7.831823   3.0000   6.9410
    169    1 Li    3     20.010427      1.773687      7.810366   3.0000   6.9410
    170    1 Li    3     12.700487     20.003763      7.871490   3.0000   6.9410
    171    1 Li    3     12.708702     12.684296      7.793733   3.0000   6.9410
    172    1 Li    3     16.367240      1.870785      7.835716   3.0000   6.9410
    173    1 Li    3     20.114237      9.087817      7.842774   3.0000   6.9410
    174    1 Li    3     12.711491     16.407004      7.908083   3.0000   6.9410
    175    1 Li    3     16.400910     19.961661      7.816784   3.0000   6.9410
    176    1 Li    3      5.390470      1.812482      7.932563   3.0000   6.9410
    177    1 Li    3     20.014336      5.510510      7.856517   3.0000   6.9410
    178    1 Li    3     16.408573     12.731497      7.821041   3.0000   6.9410
    179    1 Li    3      9.125983      9.050991      7.837168   3.0000   6.9410
    180    1 Li    3     20.035395     20.013517      7.827116   3.0000   6.9410
    181    1 Li    3     18.214502      7.248732      9.470111   3.0000   6.9410
    182    1 Li    3      7.277316      3.622611      9.435453   3.0000   6.9410
    183    1 Li    3      0.008683     18.167456      9.357724   3.0000   6.9410
    184    1 Li    3      3.604568     14.536100      9.441993   3.0000   6.9410
    185    1 Li    3     10.925490     -0.017840      9.385891   3.0000   6.9410
    186    1 Li    3     10.961713     10.925476      9.580430   3.0000   6.9410
    187    1 Li    3     21.779201      7.267412      9.478550   3.0000   6.9410
    188    1 Li    3     14.517604      3.695308      9.473451   3.0000   6.9410
    189    1 Li    3      3.663419     18.196815      9.413862   3.0000   6.9410
    190    1 Li    3      7.286862     21.866583      9.473606   3.0000   6.9410
    191    1 Li    3      7.328571     14.503878      9.410544   3.0000   6.9410
    192    1 Li    3     21.863628     10.914963      9.381089   3.0000   6.9410
    193    1 Li    3     10.922762      7.291990      9.435382   3.0000   6.9410
    194    1 Li    3     14.582440     10.815249      9.334313   3.0000   6.9410
    195    1 Li    3      7.286468     18.253737      9.409727   3.0000   6.9410
    196    1 Li    3      3.640552      3.584521      9.495785   3.0000   6.9410
    197    1 Li    3     14.563783     -0.024752      9.425026   3.0000   6.9410
    198    1 Li    3     10.821732     14.611359      9.450823   3.0000   6.9410
    199    1 Li    3     21.819546      3.734800      9.410686   3.0000   6.9410
    200    1 Li    3      3.654216      7.242115      9.431912   3.0000   6.9410
    201    1 Li    3     10.844541     18.138730      9.457879   3.0000   6.9410
    202    1 Li    3      3.617264     10.983706      9.376441   3.0000   6.9410
    203    1 Li    3     18.188547     10.798232      9.322920   3.0000   6.9410
    204    1 Li    3     10.924886      3.631987      9.361587   3.0000   6.9410
    205    1 Li    3     14.491941     14.587565      9.426193   3.0000   6.9410
    206    1 Li    3     14.473293      7.352201      9.419828   3.0000   6.9410
    207    1 Li    3     14.516276     18.196516      9.423169   3.0000   6.9410
[...]
 flops   480 x   128 x   349        5828087808000     100.0%      0.0%      0.0%
 flops   480 x   128 x   351        5861486592000     100.0%      0.0%      0.0%
 flops   480 x   160 x    64        5885971660800     100.0%      0.0%      0.0%
 flops     6 x    32 x     6        6048764038656     100.0%      0.0%      0.0%
 flops  2393 x   160 x    64        6633809510400     100.0%      0.0%      0.0%
 flops  2394 x   128 x    96        6636581683200     100.0%      0.0%      0.0%
 flops  2398 x   160 x    64        6647670374400     100.0%      0.0%      0.0%
 flops     6 x    32 x    13        6699819270144     100.0%      0.0%      0.0%
 flops    13 x    32 x     6        6699819270144     100.0%      0.0%      0.0%
 flops    13 x    13 x    64        7514259038208     100.0%      0.0%      0.0%
 flops     5 x    32 x    13       12670944802880     100.0%      0.0%      0.0%
 flops    13 x    32 x     5       12670944802880     100.0%      0.0%      0.0%
 flops  2394 x   160 x    64       13273163366400     100.0%      0.0%      0.0%
 flops   480 x   128 x    64       15695924428800     100.0%      0.0%      0.0%
 flops  2393 x   128 x    64       17690158694400     100.0%      0.0%      0.0%
 flops  2398 x   128 x    64       17727120998400     100.0%      0.0%      0.0%
 flops    13 x    32 x    13       35019464024064     100.0%      0.0%      0.0%
 flops  2394 x   128 x    64       35395102310400     100.0%      0.0%      0.0%
 flops inhomo. stacks             174931137368640     100.0%      0.0%      0.0%
 flops total                       535.928832E+12     100.0%      0.0%      0.0%
 flops max/rank                     11.207381E+12     100.0%      0.0%      0.0%
 matmuls inhomo. stacks                   2424200     100.0%      0.0%      0.0%
 matmuls total                        22743500152     100.0%      0.0%      0.0%
 number of processed stacks              44357451     100.0%      0.0%      0.0%
 average stack size                                   512.7       0.0       0.0
 marketing flops                   841.495427E+12
 -------------------------------------------------------------------------------
 # multiplications                           7812
 max memory usage/rank               1.348137E+09
 # max total images/rank                        7
 # max 3D layers                                1
 # MPI messages exchanged                20561184
 MPI messages size (bytes):
  total size                        16.275196E+12
  min size                           0.000000E+00
  max size                           6.982976E+06
  average size                     791.549562E+03
 MPI breakdown and total messages size (bytes):
             size <=      128               37240                        0
       128 < size <=     8192                   0                        0
      8192 < size <=    32768                 840                 14595840
     32768 < size <=   131072             5482512             407324236032
    131072 < size <=  4194304            14472752           12140192113280
   4194304 < size <= 16777216              567840            3721673694960
  16777216 < size                               0                        0
 -------------------------------------------------------------------------------

 *** WARNING in dbcsr_mm.F:291 :: Using a non-square number of MPI ranks ***
 *** might lead to poor performance. Used ranks: 56 Suggested: 49 121    ***

 -------------------------------------------------------------------------------
 -                                                                             -
 -                      DBCSR MESSAGE PASSING PERFORMANCE                      -
 -                                                                             -
 -------------------------------------------------------------------------------
 ROUTINE             CALLS      AVE VOLUME [Bytes]
 MP_Bcast              160                     12.
 MP_Allreduce        42540                     28.
 MP_Alltoall         24739                 198745.
 MP_ISend           825148                 377713.
 MP_IRecv           816174                 378340.
 -------------------------------------------------------------------------------

 -------------------------------------------------------------------------------
 -                                                                             -
 -                                DBM STATISTICS                               -
 -                                                                             -
 -------------------------------------------------------------------------------
    M  x    N  x    K                                          COUNT     PERCENT
 -------------------------------------------------------------------------------

 -------------------------------------------------------------------------------
 -                                                                             -
 -                                GRID STATISTICS                              -
 -                                                                             -
 -------------------------------------------------------------------------------
 LP    KERNEL             BACKEND                              COUNT     PERCENT
 2     collocate ortho    CPU                              201001780      24.23%
 2     integrate ortho    CPU                              197878959      23.85%
 3     collocate ortho    CPU                              149303222      17.99%
 3     integrate ortho    CPU                              146981618      17.71%
 4     collocate ortho    CPU                               63836823       7.69%
 4     integrate ortho    CPU                               62844482       7.57%
 5     integrate ortho    CPU                                3122821       0.38%
 6     integrate ortho    CPU                                2321604       0.28%
 7     integrate ortho    CPU                                 992341       0.12%
 0     collocate general  CPU                                 721728       0.09%
 0     integrate general  CPU                                 360864       0.04%
 3     integrate general  CPU                                 360864       0.04%
 -------------------------------------------------------------------------------

 MEMORY| Estimated peak process memory [MiB]                                1298

 -------------------------------------------------------------------------------
 ----                             MULTIGRID INFO                            ----
 -------------------------------------------------------------------------------
 count for grid        1:        2710824          cutoff [a.u.]          250.00
 count for grid        2:        1806467          cutoff [a.u.]           83.33
 count for grid        3:        1215982          cutoff [a.u.]           27.78
 count for grid        4:         756010          cutoff [a.u.]            9.26
 total gridlevel count  :        6489283

 -------------------------------------------------------------------------------
 -                                                                             -
 -                         MESSAGE PASSING PERFORMANCE                         -
 -                                                                             -
 -------------------------------------------------------------------------------

 ROUTINE             CALLS      AVE VOLUME [Bytes]
 MP_Group               24
 MP_Bcast            14460                  94983.
 MP_Allreduce        39903                   2719.
 MP_Sync               219
 MP_Alltoall          7430               36385781.
 MP_SendRecv         43780                 211421.
 MP_ISendRecv        42460                 217600.
 MP_Wait            102044
 MP_comm_split         195
 MP_ISend            53312                 540691.
 MP_IRecv            53312                 540691.
 -------------------------------------------------------------------------------


 -------------------------------------------------------------------------------
 -                                                                             -
 -                           R E F E R E N C E S                               -
 -                                                                             -
 -------------------------------------------------------------------------------
 
 CP2K version 2024.1, the CP2K developers group (2024).
 CP2K is freely available from https://www.cp2k.org/ .

 Kuehne,Thomas D.; Iannuzzi,Marcella; Del Ben,Mauro;
 Rybkin,Vladimir V.; Seewald,Patrick; Stein,Frederick; Laino,Teodoro;
 Khaliullin,Rustam Z.; Schuett,Ole; Schiffmann,Florian; Golze,Dorothea;
 Wilhelm,Jan; Chulkov,Sergey; Bani-Hashemian,Mohammad Hossein;
 Weber,Valery; Borstnik,Urban; Taillefumier,Mathieu;
 Jakobovits,Alice Shoshana; Lazzaro,Alfio; Pabst,Hans; Mueller,Tiziano;
 Schade,Robert; Guidon,Manuel; Andermatt,Samuel; Holmberg,Nico;
 Schenter,Gregory K.; Hehn,Anna; Bussy,Augustin; Belleflamme,Fabian;
 Tabacchi,Gloria; Gloess,Andreas; Lass,Michael; Bethune,Iain;
 Mundy,Christopher J.; Plessl,Christian; Watkins,Matt;
 VandeVondele,Joost; Krack,Matthias; Hutter,Juerg. 
 The Journal of Chemical Physics, 152 (19), (2020). 
 CP2K: An electronic structure and molecular dynamics software package -
 Quickstep: Efficient and accurate electronic structure calculations.
 https://doi.org/10.1063/5.0007045

 Goerigk, Lars; Hansen, Andreas; Bauer, Christoph; Ehrlich, Stephan;
 Najibi, Asim; Grimme, Stefan. , 19 (48), (2017). 
 A look at the density functional theory zoo with the advanced GMTKN55 database
 for general main group thermochemistry, kinetics and noncovalent interactions.
 https://doi.org/10.1039/C7CP04913G

 Schuett, Ole; Messmer, Peter; Hutter, Juerg; VandeVondele, Joost. 
 Electronic Structure Calculations on Graphics Processing Units, John
 Wiley & Sons, Ltd, 173-190 (2016). 
 GPU-Accelerated Sparse Matrix-Matrix Multiplication for
 Linear Scaling Density Functional Theory.
 https://doi.org/10.1002/9781118670712.ch8

 Borstnik, U; VandeVondele, J; Weber, V; Hutter, J. 
 PARALLEL COMPUTING, 40 (5-6), 47-58 (2014). 
 Sparse matrix multiplication: The distributed block-compressed sparse
 row library.
 https://doi.org/10.1016/j.parco.2014.03.012

 Hutter, J; Iannuzzi, M; Schiffmann, F; VandeVondele, J. 
 WIREs Comput Mol Sci., 4 (1), 15-25 (2014). 
 CP2K: atomistic simulations of condensed matter systems.
 https://doi.org/10.1002/wcms.1159

 Grimme, S; Ehrlich, S; Goerigk, L. 
 JOURNAL OF COMPUTATIONAL CHEMISTRY, 32, 1456 (2011). 
 Effect of the damping function in dispersion corrected density functional theory.
 https://doi.org/10.1002/jcc.21759

 Grimme, S; Antony, J; Ehrlich, S; Krieg, H. 
 JOURNAL OF CHEMICAL PHYSICS, 132 (15), 154104 (2010). 
 A consistent and accurate ab initio parametrization of density
 functional dispersion correction (DFT-D) for the 94 elements H-Pu.
 https://doi.org/10.1063/1.3382344

 VandeVondele, J; Hutter, J. 
 JOURNAL OF CHEMICAL PHYSICS, 127 (11), 114105 (2007). 
 Gaussian basis sets for accurate calculations on molecular systems in
 gas and condensed phases.
 https://doi.org/10.1063/1.2770708

 Kuhne, TD; Krack, M; Mohamed, FR; Parrinello, M. 
 PHYSICAL REVIEW LETTERS, 98 (6), 066401 (2007). 
 Efficient and accurate Car-Parrinello-like approach to
 Born-Oppenheimer molecular dynamics.
 https://doi.org/10.1103/PhysRevLett.98.066401

 Bussi, G; Donadio, D; Parrinello, M. 
 JOURNAL OF CHEMICAL PHYSICS, 126 (1), 014101 (2007). 
 Canonical sampling through velocity rescaling.
 https://doi.org/10.1063/1.2408420

 Krack, M. 
 THEORETICAL CHEMISTRY ACCOUNTS, 114 (1-3), 145-152 (2005). 
 Pseudopotentials for H to Kr optimized for gradient-corrected
 exchange-correlation functionals.
 https://doi.org/10.1007/s00214-005-0655-y

 VandeVondele, J; Krack, M; Mohamed, F; Parrinello, M; Chassaing, T;
 Hutter, J. COMPUTER PHYSICS COMMUNICATIONS, 167 (2), 103-128 (2005). 
 QUICKSTEP: Fast and accurate density functional calculations using a
 mixed Gaussian and plane waves approach.
 https://doi.org/10.1016/j.cpc.2004.12.014

 Frigo, M; Johnson, SG. 
 PROCEEDINGS OF THE IEEE, 93 (2), 216-231 (2005). 
 The design and implementation of FFTW3.
 https://doi.org/10.1109/JPROC.2004.840301

 Kolafa, J. 
 JOURNAL OF COMPUTATIONAL CHEMISTRY, 25 (3), 335-342 (2004). 
 Time-reversible always stable predictor-corrector method for
 molecular dynamics of polarizable molecules.
 https://doi.org/10.1002/jcc.10385

 VandeVondele, J; Hutter, J. 
 JOURNAL OF CHEMICAL PHYSICS, 118 (10), 4365-4369 (2003). 
 An efficient orbital transformation method for electronic structure
 calculations.
 https://doi.org/10.1063/1.1543154

 Hartwigsen, C; Goedecker, S; Hutter, J. 
 PHYSICAL REVIEW B, 58 (7), 3641-3662 (1998). 
 Relativistic separable dual-space Gaussian pseudopotentials from H to Rn.
 https://doi.org/10.1103/PhysRevB.58.3641

 Lippert, G; Hutter, J; Parrinello, M. 
 MOLECULAR PHYSICS, 92 (3), 477-487 (1997). 
 A hybrid Gaussian and plane wave density functional scheme.
 https://doi.org/10.1080/002689797170220

 Perdew, JP; Burke, K; Ernzerhof, M. 
 PHYSICAL REVIEW LETTERS, 77 (18), 3865-3868 (1996). 
 Generalized gradient approximation made simple.
 https://doi.org/10.1103/PhysRevLett.77.3865

 Goedecker, S; Teter, M; Hutter, J. 
 PHYSICAL REVIEW B, 54 (3), 1703-1710 (1996). 
 Separable dual-space Gaussian pseudopotentials.
 https://doi.org/10.1103/PhysRevB.54.1703


 -------------------------------------------------------------------------------
 -                                                                             -
 -                                T I M I N G                                  -
 -                                                                             -
 -------------------------------------------------------------------------------
 SUBROUTINE                       CALLS  ASD         SELF TIME        TOTAL TIME
                                MAXIMUM       AVERAGE  MAXIMUM  AVERAGE  MAXIMUM
 CP2K                                 1  1.0    0.049    0.065 2379.280 2379.285
 qs_mol_dyn_low                       1  2.0    0.010    0.012 2377.816 2377.824
 qs_forces                            6  3.8    0.006    0.007 2377.332 2377.333
 qs_energies                          6  4.8    0.003    0.005 2339.907 2339.924
 scf_env_do_scf                       6  5.8    0.002    0.004 2309.793 2309.810
 scf_env_do_scf_inner_loop          380  6.3    0.009    0.016 2236.743 2236.747
 rebuild_ks_matrix                  386  8.3    0.002    0.002 1097.485 1104.907
 qs_ks_build_kohn_sham_matrix       386  9.3    0.058    0.064 1097.483 1104.905
 qs_ks_update_qs_env                390  7.3    0.004    0.005 1069.581 1076.866
 dbcsr_multiply_generic            7812 12.4    0.686    0.744  874.608  886.628
 velocity_verlet                      5  3.0    0.011    0.012  832.224  832.231
 qs_scf_new_mos                     380  7.3    0.002    0.003  803.431  812.263
 qs_scf_loop_do_ot                  380  8.3    0.003    0.005  803.428  812.260
 ot_scf_mini                        380  9.3    0.011    0.013  750.832  757.793
 multiply_cannon                   7812 13.4    0.928    1.056  716.255  751.797
 multiply_cannon_loop              7812 14.4    2.823    3.021  696.972  732.184
 pw_transfer                       7340 12.5    0.588    0.732  519.774  528.512
 fft_wrap_pw1pw2                   6568 13.6    0.061    0.074  514.160  522.952
 multiply_cannon_multrec         218736 15.4  439.977  522.320  440.094  522.438
 qs_vxc_create                      386 10.3    0.014    0.017  511.185  514.753
 xc_vxc_pw_create                   386 11.3   18.423   22.171  511.171  514.739
 fft_wrap_pw1pw2_250               4252 15.0   21.227   21.996  489.149  497.221
 ot_mini                            380 10.3    0.003    0.004  457.913  466.695
 qs_rho_update_rho_low              386  7.4    0.002    0.003  397.947  398.805
 calculate_rho_elec                 386  8.4    1.901    2.126  397.945  398.803
 sum_up_and_integrate               386 10.3    0.009    0.010  393.062  393.337
 integrate_v_rspace                 386 11.3    0.019    0.021  390.053  390.530
 fft3d_ps                          6568 15.6  194.824  208.161  378.262  389.804
 mp_waitall_1                    736188 16.4  310.879  365.384  310.879  365.384
 xc_pw_derive                      2316 13.3    0.035    0.038  326.843  339.784
 multiply_cannon_metrocomm3      218736 15.4    0.811    0.872  248.511  299.689
 qs_ot_get_derivative               380 11.3    0.006    0.008  278.536  285.559
 xc_rho_set_and_dset_create         386 12.3    6.075    7.813  266.748  279.001
 grid_integrate_task_list           386 12.3  226.239  245.784  226.239  245.784
 xc_pw_divergence                   386 12.3    0.021    0.025  219.636  229.475
 grid_collocate_task_list           386  9.4  210.444  223.240  210.444  223.240
 density_rs2pw                      386  9.4    0.027    0.030  174.028  186.770
 ot_diis_step                       380 11.3    0.029    0.033  177.559  177.572
 apply_preconditioner_dbcsr         390 12.3    0.001    0.002  160.271  168.301
 apply_single                       390 13.3    0.002    0.003  160.270  168.300
 mp_alltoall_z22v                  6568 17.6  117.160  141.696  117.160  141.696
 potential_pw2rs                    386 12.3    0.210    0.252  135.991  136.339
 make_m2s                         15624 13.4    0.617    0.639  109.061  111.401
 qs_ot_get_p                        390 10.3    0.004    0.005  102.013  110.991
 qs_ot_get_derivative_diag          191 12.0    0.009    0.010  102.516  106.065
 x_to_yz                           3474 17.0   42.261   49.795   99.549  104.065
 xc_functional_eval                 386 13.3    0.004    0.005   90.994  102.310
 pbe_lda_eval                       386 14.3   90.989  102.306   90.989  102.306
 yz_to_x                           3094 16.2   23.875   25.032   83.746   99.808
 qs_ot_get_derivative_taylor        189 12.7    0.010    0.011   88.705   92.154
 make_images                      15624 14.4    2.294    2.433   89.144   90.633
 transfer_pw2rs                    1556 13.3    0.013    0.014   80.074   80.135
 transfer_rs2pw                    1556 10.4    0.016    0.018   64.071   75.753
 qs_ot_get_orbitals                 380 10.3    0.003    0.005   73.265   74.445
 init_scf_loop                       10  6.5    0.000    0.000   72.832   72.840
 mp_waitany                       53312 13.8   43.678   67.770   43.678   67.770
 make_images_data                 15624 15.4    0.230    0.251   56.474   58.288
 pw_derive                         2334 14.3   55.104   57.736   55.104   57.736
 mp_sum_l                         37878 13.3   31.297   56.990   31.297   56.990
 calculate_dm_sparse                386  9.3    0.003    0.004   53.517   56.932
 hybrid_alltoall_any              15893 16.3    2.196    9.807   51.914   56.291
 mp_alltoall_d11v                  4915 14.4   39.408   53.245   39.408   53.245
 qs_ot_p2m_diag                     195 11.0    0.694    0.826   52.259   52.475
 pw_scatter_p                      3474 16.0   47.796   49.259   47.796   49.259
 -------------------------------------------------------------------------------

 The number of warnings for this run is : 1
 
 -------------------------------------------------------------------------------
  **** **** ******  **  PROGRAM ENDED AT                 2024-04-11 11:49:55.548
 ***** ** ***  *** **   PROGRAM RAN ON                                    cn5277
 **    ****   ******    PROGRAM RAN BY                                 chengroup
 ***** **    ** ** **   PROGRAM PROCESS ID                               4067333
  **** **  *******  **  PROGRAM STOPPED IN /fs2/home/chengroup/xushuo/Li-LiFSI-D
                                           ME/1-1-test2
