#     Step Nr.          Time[fs]        Kin.[a.u.]          Temp[K]            Pot.[a.u.]        Cons Qty[a.u.]        UsedTime[s]
         0            0.000000         0.437020517       800.000000000      -511.523420184      -511.074962981         0.000000000
         1            1.000000         0.649374860      1188.731118108      -511.811215146      -511.146797625       167.915234310
         2            2.000000         0.740796205      1356.084990036      -511.889610550      -511.129672319        37.971181663
         3            3.000000         0.699883441      1281.190997846      -511.843046738      -511.121139873        34.917674490
