 DBCSR| CPU Multiplication driver                                           XSMM (U)
 DBCSR| Multrec recursion limit                                              512 (U)
 DBCSR| Multiplication stack size                                           1000 (D)
 DBCSR| Maximum elements for images                                    UNLIMITED (U)
 DBCSR| Multiplicative factor virtual images                                   1 (U)
 DBCSR| Use multiplication densification                                       T (D)
 DBCSR| Multiplication size stacks                                             3 (U)
 DBCSR| Use memory pool for CPU allocation                                     F (U)
 DBCSR| Number of 3D layers                                               SINGLE (U)
 DBCSR| Use MPI memory allocation                                              F (U)
 DBCSR| Use RMA algorithm                                                      F (U)
 DBCSR| Use Communication thread                                               T (U)
 DBCSR| Communication thread load                                             87 (D)
 DBCSR| MPI: My process id                                                     0
 DBCSR| MPI: Number of processes                                              18
 DBCSR| OMP: Current number of threads                                         1
 DBCSR| OMP: Max number of threads                                             1
 DBCSR| Split modifier for TAS multiplication algorithm                  1.0E+00 (U)


  **** **** ******  **  PROGRAM STARTED AT               2023-09-26 17:10:29.226
 ***** ** ***  *** **   PROGRAM STARTED ON                                    n1
 **    ****   ******    PROGRAM STARTED BY                                haorui
 ***** **    ** ** **   PROGRAM PROCESS ID                                143406
  **** **  *******  **  PROGRAM STARTED IN    /home/haorui/GMY/MeHdabco_RbI3/npt

 CP2K| version string:                                       CP2K version 2023.1
 CP2K| source code revision number:                                  git:b888bd8
 CP2K| cp2kflags: omp libint fftw3 libxc elpa parallel scalapack cosma xsmm plum
 CP2K|            ed2 spglib mkl libvori libbqb
 CP2K| is freely available from                            https://www.cp2k.org/
 CP2K| Program compiled at                          Wed Aug  2 16:48:06 CST 2023
 CP2K| Program compiled on                                                    n1
 CP2K| Program compiled for                                                local
 CP2K| Data directory path                       /data/cp2k2023/cp2k-2023.1/data
 CP2K| Input file name                                                  cp2k.inp

 GLOBAL| Force Environment number                                              1
 GLOBAL| Basis set file name                                        BASIS_MOLOPT
 GLOBAL| Potential file name                                           POTENTIAL
 GLOBAL| MM Potential file name                                     MM_POTENTIAL
 GLOBAL| Coordinate file name                                      __STD_INPUT__
 GLOBAL| Method name                                                        CP2K
 GLOBAL| Project name                                                       cp2k
 GLOBAL| Run type                                                             MD
 GLOBAL| FFT library                                                       FFTW3
 GLOBAL| Diagonalization library                                            ELPA
 GLOBAL| DGEMM library                                                      BLAS
 GLOBAL| Minimum number of eigenvectors for ELPA usage                        16
 GLOBAL| Orthonormality check for eigenvectors                          DISABLED
 GLOBAL| Matrix multiplication library                                     COSMA
 GLOBAL| All-to-all communication in single precision                          F
 GLOBAL| FFTs using library dependent lengths                                  F
 GLOBAL| Grid backend                                                       AUTO
 GLOBAL| Global print level                                               MEDIUM
 GLOBAL| MPI I/O enabled                                                       T
 GLOBAL| Total number of message passing processes                            18
 GLOBAL| Number of threads for this process                                    1
 GLOBAL| This output is from process                                           0
 GLOBAL| Stack size for threads created by OpenMP (OMP_STACKSIZE)        default
 GLOBAL| CPU model name            Intel(R) Xeon(R) Platinum 8124M CPU @ 3.00GHz
 GLOBAL| CPUID                                                              1003
 GLOBAL| Compiled for CPUID                                                    0

 *** HINT in environment.F:884 :: The compiler target flags (generic) used ***
 *** to build this binary cannot exploit all extensions of this CPU model  ***
 *** (x86_avx512). Consider compiler target flags as part of FCFLAGS and   ***
 *** CFLAGS (ARCH file).                                                   ***


 MEMORY| system memory details [Kb]
 MEMORY|                        rank 0           min           max       average
 MEMORY| MemTotal            196482812     196482812     196482812     196482812
 MEMORY| MemFree              76368516      76368516      76368516      76368516
 MEMORY| Buffers                 92464         92464         92464         92464
 MEMORY| Cached               39968520      39968520      39968520      39968520
 MEMORY| Slab                  1264804       1264788       1264804       1264789
 MEMORY| SReclaimable          1059076       1059076       1059076       1059076
 MEMORY| MemLikelyFree       117488576     117488576     117488576     117488576


 *** Fundamental physical constants (SI units) ***

 *** Literature: B. J. Mohr and B. N. Taylor,
 ***             CODATA recommended values of the fundamental physical
 ***             constants: 2006, Web Version 5.1
 ***             http://physics.nist.gov/constants

 Speed of light in vacuum [m/s]                             2.99792458000000E+08
 Magnetic constant or permeability of vacuum [N/A**2]       1.25663706143592E-06
 Electric constant or permittivity of vacuum [F/m]          8.85418781762039E-12
 Planck constant (h) [J*s]                                  6.62606896000000E-34
 Planck constant (h-bar) [J*s]                              1.05457162825177E-34
 Elementary charge [C]                                      1.60217648700000E-19
 Electron mass [kg]                                         9.10938215000000E-31
 Electron g factor [ ]                                     -2.00231930436220E+00
 Proton mass [kg]                                           1.67262163700000E-27
 Fine-structure constant                                    7.29735253760000E-03
 Rydberg constant [1/m]                                     1.09737315685270E+07
 Avogadro constant [1/mol]                                  6.02214179000000E+23
 Boltzmann constant [J/K]                                   1.38065040000000E-23
 Atomic mass unit [kg]                                      1.66053878200000E-27
 Bohr radius [m]                                            5.29177208590000E-11

 *** Conversion factors ***

 [u] -> [a.u.]                                              1.82288848426455E+03
 [Angstrom] -> [Bohr] = [a.u.]                              1.88972613288564E+00
 [a.u.] = [Bohr] -> [Angstrom]                              5.29177208590000E-01
 [a.u.] -> [s]                                              2.41888432650478E-17
 [a.u.] -> [fs]                                             2.41888432650478E-02
 [a.u.] -> [J]                                              4.35974393937059E-18
 [a.u.] -> [N]                                              8.23872205491840E-08
 [a.u.] -> [K]                                              3.15774647902944E+05
 [a.u.] -> [kJ/mol]                                         2.62549961709828E+03
 [a.u.] -> [kcal/mol]                                       6.27509468713739E+02
 [a.u.] -> [Pa]                                             2.94210107994716E+13
 [a.u.] -> [bar]                                            2.94210107994716E+08
 [a.u.] -> [atm]                                            2.90362800883016E+08
 [a.u.] -> [eV]                                             2.72113838565563E+01
 [a.u.] -> [Hz]                                             6.57968392072181E+15
 [a.u.] -> [1/cm] (wave numbers)                            2.19474631370540E+05
 [a.u./Bohr**2] -> [1/cm]                                   5.14048714338585E+03
 

 CELL_TOP| Volume [angstrom^3]:                                      1555.455670
 CELL_TOP| Vector a [angstrom    14.755     0.000     0.000   |a| =    14.754900
 CELL_TOP| Vector b [angstrom     0.725     8.168     0.000   |b| =     8.200000
 CELL_TOP| Vector c [angstrom     1.149     1.049    12.907   |c| =    13.000000
 CELL_TOP| Angle (b,c), alpha [degree]:                                84.939000
 CELL_TOP| Angle (a,c), beta  [degree]:                                84.930000
 CELL_TOP| Angle (a,b), gamma [degree]:                                84.930000
 CELL_TOP| Numerically orthorhombic:                                          NO
 CELL_TOP| Periodicity                                                       XYZ

 GENERATE|  Preliminary Number of Bonds generated:                             0
 GENERATE|  Achieved consistency in connectivity generation.

 CELL| Volume [angstrom^3]:                                          1555.455670
 CELL| Vector a [angstrom]:      14.755     0.000     0.000   |a| =    14.754900
 CELL| Vector b [angstrom]:       0.725     8.168     0.000   |b| =     8.200000
 CELL| Vector c [angstrom]:       1.149     1.049    12.907   |c| =    13.000000
 CELL| Angle (b,c), alpha [degree]:                                    84.939000
 CELL| Angle (a,c), beta  [degree]:                                    84.930000
 CELL| Angle (a,b), gamma [degree]:                                    84.930000
 CELL| Numerically orthorhombic:                                              NO
 CELL| Periodicity                                                           XYZ

 CELL_REF| Volume [angstrom^3]:                                      1555.455670
 CELL_REF| Vector a [angstrom    14.755     0.000     0.000   |a| =    14.754900
 CELL_REF| Vector b [angstrom     0.725     8.168     0.000   |b| =     8.200000
 CELL_REF| Vector c [angstrom     1.149     1.049    12.907   |c| =    13.000000
 CELL_REF| Angle (b,c), alpha [degree]:                                84.939000
 CELL_REF| Angle (a,c), beta  [degree]:                                84.930000
 CELL_REF| Angle (a,b), gamma [degree]:                                84.930000
 CELL_REF| Numerically orthorhombic:                                          NO
 CELL_REF| Periodicity                                                       XYZ

 *******************************************************************************
 *******************************************************************************
 **                                                                           **
 **     #####                         ##              ##                      **
 **    ##   ##            ##          ##              ##                      **
 **   ##     ##                       ##            ######                    **
 **   ##     ##  ##   ##  ##   #####  ##  ##   ####   ##    #####    #####    **
 **   ##     ##  ##   ##  ##  ##      ## ##   ##      ##   ##   ##  ##   ##   **
 **   ##  ## ##  ##   ##  ##  ##      ####     ###    ##   ######   ######    **
 **    ##  ###   ##   ##  ##  ##      ## ##      ##   ##   ##       ##        **
 **     #######   #####   ##   #####  ##  ##  ####    ##    #####   ##        **
 **           ##                                                    ##        **
 **                                                                           **
 **                                                ... make the atoms dance   **
 **                                                                           **
 **            Copyright (C) by CP2K developers group (2000-2022)             **
 **                      J. Chem. Phys. 152, 194103 (2020)                    **
 **                                                                           **
 *******************************************************************************

 DFT| Spin restricted Kohn-Sham (RKS) calculation                            RKS
 DFT| Multiplicity                                                             1
 DFT| Number of spin states                                                    1
 DFT| Charge                                                                   0
 DFT| Self-interaction correction (SIC)                                       NO
 DFT| Cutoffs: density                                              1.000000E-10
 DFT|          gradient                                             1.000000E-10
 DFT|          tau                                                  1.000000E-10
 DFT|          cutoff_smoothing_range                               0.000000E+00
 DFT| XC density smoothing                                                  NONE
 DFT| XC derivatives                                                          PW

 FUNCTIONAL| PBE:
 FUNCTIONAL| revPBE, Yingkay Zhang and Weitao Yang, Phys. Rev. Letter, vol 80,n 
 FUNCTIONAL| 4, p. 890, (1998){spin unpolarized}                                

 vdW POTENTIAL|                                                   Pair Potential
 vdW POTENTIAL|          DFT-D3 (Version 3.1)
 vdW POTENTIAL|          Potential Form: S. Grimme et al, JCP 132: 154104 (2010)
 vdW POTENTIAL|          BJ Damping: S. Grimme et al, JCC 32: 1456 (2011)
 vdW POTENTIAL|          Cutoff Radius [Bohr]:                             20.00
 vdW POTENTIAL|          s6 Scaling Factor:                               1.0000
 vdW POTENTIAL|          a1 Damping Factor:                               0.5238
 vdW POTENTIAL|          s8 Scaling Factor:                               2.3550
 vdW POTENTIAL|          a2 Damping Factor:                               3.5016
 vdW POTENTIAL|          Cutoff for CN calculation:                   0.1000E-05

 QS| Method:                                                                 GPW
 QS| Density plane wave grid type                        NON-SPHERICAL FULLSPACE
 QS| Number of grid levels:                                                    4
 QS| Density cutoff [a.u.]:                                                200.0
 QS| Multi grid cutoff [a.u.]: 1) grid level                               200.0
 QS|                           2) grid level                                66.7
 QS|                           3) grid level                                22.2
 QS|                           4) grid level                                 7.4
 QS| Grid level progression factor:                                          3.0
 QS| Relative density cutoff [a.u.]:                                        20.0
 QS| Interaction thresholds: eps_pgf_orb:                                1.0E-05
 QS|                         eps_filter_matrix:                          0.0E+00
 QS|                         eps_core_charge:                            1.0E-12
 QS|                         eps_rho_gspace:                             1.0E-10
 QS|                         eps_rho_rspace:                             1.0E-10
 QS|                         eps_gvg_rspace:                             1.0E-05
 QS|                         eps_ppl:                                    1.0E-02
 QS|                         eps_ppnl:                                   1.0E-07


 ATOMIC KIND INFORMATION

  1. Atomic kind: I                                     Number of atoms:      12

     Orbital Basis Set                                     DZVP-MOLOPT-SR-GTH-q7

       Number of orbital shell sets:                                           1
       Number of orbital shells:                                               5
       Number of primitive Cartesian functions:                                5
       Number of Cartesian basis functions:                                   14
       Number of spherical basis functions:                                   13
       Norm type:                                                              2

       Normalised Cartesian orbitals:

                        Set   Shell   Orbital            Exponent    Coefficient

                          1       1    2s                0.966173      -0.369082
                                                         0.828886      -0.032154
                                                         0.367159       0.255166
                                                         0.201369       0.106471
                                                         0.083015       0.018311

                          1       2    3s                0.966173       0.683204
                                                         0.828886      -0.158631
                                                         0.367159       0.177969
                                                         0.201369      -0.294034
                                                         0.083015       0.146292

                          1       3    3px               0.966173      -1.009678
                                                         0.828886       0.783764
                                                         0.367159       0.107863
                                                         0.201369       0.101262
                                                         0.083015       0.016495
                          1       3    3py               0.966173      -1.009678
                                                         0.828886       0.783764
                                                         0.367159       0.107863
                                                         0.201369       0.101262
                                                         0.083015       0.016495
                          1       3    3pz               0.966173      -1.009678
                                                         0.828886       0.783764
                                                         0.367159       0.107863
                                                         0.201369       0.101262
                                                         0.083015       0.016495

                          1       4    4px               0.966173       0.359095
                                                         0.828886      -0.244536
                                                         0.367159      -0.104560
                                                         0.201369      -0.016515
                                                         0.083015       0.074319
                          1       4    4py               0.966173       0.359095
                                                         0.828886      -0.244536
                                                         0.367159      -0.104560
                                                         0.201369      -0.016515
                                                         0.083015       0.074319
                          1       4    4pz               0.966173       0.359095
                                                         0.828886      -0.244536
                                                         0.367159      -0.104560
                                                         0.201369      -0.016515
                                                         0.083015       0.074319

                          1       5    4dx2              0.966173       0.425303
                                                         0.828886      -0.290637
                                                         0.367159      -0.113356
                                                         0.201369      -0.050939
                                                         0.083015      -0.003796
                          1       5    4dxy              0.966173       0.736646
                                                         0.828886      -0.503397
                                                         0.367159      -0.196338
                                                         0.201369      -0.088229
                                                         0.083015      -0.006576
                          1       5    4dxz              0.966173       0.736646
                                                         0.828886      -0.503397
                                                         0.367159      -0.196338
                                                         0.201369      -0.088229
                                                         0.083015      -0.006576
                          1       5    4dy2              0.966173       0.425303
                                                         0.828886      -0.290637
                                                         0.367159      -0.113356
                                                         0.201369      -0.050939
                                                         0.083015      -0.003796
                          1       5    4dyz              0.966173       0.736646
                                                         0.828886      -0.503397
                                                         0.367159      -0.196338
                                                         0.201369      -0.088229
                                                         0.083015      -0.006576
                          1       5    4dz2              0.966173       0.425303
                                                         0.828886      -0.290637
                                                         0.367159      -0.113356
                                                         0.201369      -0.050939
                                                         0.083015      -0.003796

       Atomic covalent radius [Angstrom]:                                  1.330

       Atomic van der Waals radius [Angstrom]:                             1.980

     GTH Potential information for                                       GTH-PBE

       Description:                       Goedecker-Teter-Hutter pseudopotential
                                           Goedecker et al., PRB 54, 1703 (1996)
                                          Hartwigsen et al., PRB 58, 3641 (1998)
                                                      Krack, TCA 114, 145 (2005)

       Gaussian exponent of the core charge distribution:               1.594388
       Electronic configuration (s p d ...):                               2   5

       Parameters of the local part of the GTH pseudopotential:

                          rloc        C1          C2          C3          C4
                        0.560000    8.207102

       Parameters of the non-local part of the GTH pseudopotential:

                   l      r(l)      h(i,j,l)

                   0    0.531928    2.308146    1.003909   -0.959156
                                    1.003909   -2.856109    2.476530
                                   -0.959156    2.476530   -1.965685
                   1    0.589182    0.906482    0.425071
                                    0.425071   -0.502950
                   2    0.739721    0.479195

  2. Atomic kind: Rb                                    Number of atoms:       4

     Orbital Basis Set                                     DZVP-MOLOPT-SR-GTH-q9

       Number of orbital shell sets:                                           1
       Number of orbital shells:                                               6
       Number of primitive Cartesian functions:                                7
       Number of Cartesian basis functions:                                   15
       Number of spherical basis functions:                                   14
       Norm type:                                                              2

       Normalised Cartesian orbitals:

                        Set   Shell   Orbital            Exponent    Coefficient

                          1       1    2s                7.107231      -0.203041
                                                         2.414406       0.709693
                                                         1.134628      -0.083982
                                                         0.483816      -0.360024
                                                         0.198690      -0.067875
                                                         0.078497       0.000274
                                                         0.029773       0.001349

                          1       2    3s                7.107231      -0.045315
                                                         2.414406       0.186778
                                                         1.134628      -0.035782
                                                         0.483816      -0.132509
                                                         0.198690      -0.063806
                                                         0.078497       0.036216
                                                         0.029773       0.045840

                          1       3    4s                7.107231       0.104856
                                                         2.414406      -0.386115
                                                         1.134628       0.227638
                                                         0.483816      -0.000685
                                                         0.198690       0.330296
                                                         0.078497      -0.370921
                                                         0.029773       0.108703

                          1       4    3px               7.107231       0.672865
                                                         2.414406      -0.789355
                                                         1.134628       0.402330
                                                         0.483816       0.327463
                                                         0.198690       0.066083
                                                         0.078497       0.002696
                                                         0.029773      -0.000011
                          1       4    3py               7.107231       0.672865
                                                         2.414406      -0.789355
                                                         1.134628       0.402330
                                                         0.483816       0.327463
                                                         0.198690       0.066083
                                                         0.078497       0.002696
                                                         0.029773      -0.000011
                          1       4    3pz               7.107231       0.672865
                                                         2.414406      -0.789355
                                                         1.134628       0.402330
                                                         0.483816       0.327463
                                                         0.198690       0.066083
                                                         0.078497       0.002696
                                                         0.029773      -0.000011

                          1       5    4px               7.107231      -0.144184
                                                         2.414406       0.167632
                                                         1.134628      -0.097479
                                                         0.483816      -0.100365
                                                         0.198690      -0.016072
                                                         0.078497       0.014333
                                                         0.029773       0.015027
                          1       5    4py               7.107231      -0.144184
                                                         2.414406       0.167632
                                                         1.134628      -0.097479
                                                         0.483816      -0.100365
                                                         0.198690      -0.016072
                                                         0.078497       0.014333
                                                         0.029773       0.015027
                          1       5    4pz               7.107231      -0.144184
                                                         2.414406       0.167632
                                                         1.134628      -0.097479
                                                         0.483816      -0.100365
                                                         0.198690      -0.016072
                                                         0.078497       0.014333
                                                         0.029773       0.015027

                          1       6    4dx2              7.107231      -0.058382
                                                         2.414406      -0.012672
                                                         1.134628       0.112731
                                                         0.483816       0.095028
                                                         0.198690       0.036688
                                                         0.078497       0.006500
                                                         0.029773       0.001176
                          1       6    4dxy              7.107231      -0.101120
                                                         2.414406      -0.021949
                                                         1.134628       0.195255
                                                         0.483816       0.164593
                                                         0.198690       0.063546
                                                         0.078497       0.011259
                                                         0.029773       0.002037
                          1       6    4dxz              7.107231      -0.101120
                                                         2.414406      -0.021949
                                                         1.134628       0.195255
                                                         0.483816       0.164593
                                                         0.198690       0.063546
                                                         0.078497       0.011259
                                                         0.029773       0.002037
                          1       6    4dy2              7.107231      -0.058382
                                                         2.414406      -0.012672
                                                         1.134628       0.112731
                                                         0.483816       0.095028
                                                         0.198690       0.036688
                                                         0.078497       0.006500
                                                         0.029773       0.001176
                          1       6    4dyz              7.107231      -0.101120
                                                         2.414406      -0.021949
                                                         1.134628       0.195255
                                                         0.483816       0.164593
                                                         0.198690       0.063546
                                                         0.078497       0.011259
                                                         0.029773       0.002037
                          1       6    4dz2              7.107231      -0.058382
                                                         2.414406      -0.012672
                                                         1.134628       0.112731
                                                         0.483816       0.095028
                                                         0.198690       0.036688
                                                         0.078497       0.006500
                                                         0.029773       0.001176

       Atomic covalent radius [Angstrom]:                                  2.160

       Atomic van der Waals radius [Angstrom]:                             3.030

     GTH Potential information for                                       GTH-PBE

       Description:                       Goedecker-Teter-Hutter pseudopotential
                                           Goedecker et al., PRB 54, 1703 (1996)
                                          Hartwigsen et al., PRB 58, 3641 (1998)
                                                      Krack, TCA 114, 145 (2005)

       Gaussian exponent of the core charge distribution:               2.082466
       Electronic configuration (s p d ...):                               3   6

       Parameters of the local part of the GTH pseudopotential:

                          rloc        C1          C2          C3          C4
                        0.490000    5.669086   -0.811627

       Parameters of the non-local part of the GTH pseudopotential:

                   l      r(l)      h(i,j,l)

                   0    0.281803   21.390732   -8.078667
                                   -8.078667   10.429514
                   1    0.285708   12.256349  -12.198541
                                  -12.198541   14.433508
                   2    0.541797    0.345666

  3. Atomic kind: N                                     Number of atoms:       8

     Orbital Basis Set                                        TZVP-MOLOPT-GTH-q5

       Number of orbital shell sets:                                           1
       Number of orbital shells:                                               7
       Number of primitive Cartesian functions:                                7
       Number of Cartesian basis functions:                                   18
       Number of spherical basis functions:                                   17
       Norm type:                                                              2

       Normalised Cartesian orbitals:

                        Set   Shell   Orbital            Exponent    Coefficient

                          1       1    2s                9.042730      -0.237404
                                                         3.882225      -0.265910
                                                         1.512880       0.102064
                                                         0.586631       0.295369
                                                         0.222851       0.088647
                                                         0.084583       0.003860
                                                         0.039194       0.000722

                          1       2    3s                9.042730       0.259152
                                                         3.882225       0.251432
                                                         1.512880      -0.043896
                                                         0.586631      -0.328079
                                                         0.222851       0.175857
                                                         0.084583       0.069169
                                                         0.039194       0.004207

                          1       3    4s                9.042730       0.330627
                                                         3.882225       0.738242
                                                         1.512880      -0.570149
                                                         0.586631       0.474918
                                                         0.222851       0.192885
                                                         0.084583      -0.214824
                                                         0.039194       0.031577

                          1       4    3px               9.042730       0.822162
                                                         3.882225       0.990771
                                                         1.512880       0.665657
                                                         0.586631       0.321705
                                                         0.222851       0.063706
                                                         0.084583       0.004155
                                                         0.039194      -0.000005
                          1       4    3py               9.042730       0.822162
                                                         3.882225       0.990771
                                                         1.512880       0.665657
                                                         0.586631       0.321705
                                                         0.222851       0.063706
                                                         0.084583       0.004155
                                                         0.039194      -0.000005
                          1       4    3pz               9.042730       0.822162
                                                         3.882225       0.990771
                                                         1.512880       0.665657
                                                         0.586631       0.321705
                                                         0.222851       0.063706
                                                         0.084583       0.004155
                                                         0.039194      -0.000005

                          1       5    4px               9.042730      -0.251449
                                                         3.882225      -0.215479
                                                         1.512880      -0.200519
                                                         0.586631      -0.125283
                                                         0.222851       0.136219
                                                         0.084583       0.034362
                                                         0.039194       0.000879
                          1       5    4py               9.042730      -0.251449
                                                         3.882225      -0.215479
                                                         1.512880      -0.200519
                                                         0.586631      -0.125283
                                                         0.222851       0.136219
                                                         0.084583       0.034362
                                                         0.039194       0.000879
                          1       5    4pz               9.042730      -0.251449
                                                         3.882225      -0.215479
                                                         1.512880      -0.200519
                                                         0.586631      -0.125283
                                                         0.222851       0.136219
                                                         0.084583       0.034362
                                                         0.039194       0.000879

                          1       6    5px               9.042730      -1.546561
                                                         3.882225       0.742834
                                                         1.512880      -1.783177
                                                         0.586631       0.969458
                                                         0.222851       0.077327
                                                         0.084583      -0.117711
                                                         0.039194       0.027593
                          1       6    5py               9.042730      -1.546561
                                                         3.882225       0.742834
                                                         1.512880      -1.783177
                                                         0.586631       0.969458
                                                         0.222851       0.077327
                                                         0.084583      -0.117711
                                                         0.039194       0.027593
                          1       6    5pz               9.042730      -1.546561
                                                         3.882225       0.742834
                                                         1.512880      -1.783177
                                                         0.586631       0.969458
                                                         0.222851       0.077327
                                                         0.084583      -0.117711
                                                         0.039194       0.027593

                          1       7    4dx2              9.042730       1.099742
                                                         3.882225       0.532064
                                                         1.512880       0.873643
                                                         0.586631       0.456348
                                                         0.222851       0.017840
                                                         0.084583      -0.000857
                                                         0.039194      -0.000086
                          1       7    4dxy              9.042730       1.904809
                                                         3.882225       0.921562
                                                         1.512880       1.513195
                                                         0.586631       0.790419
                                                         0.222851       0.030900
                                                         0.084583      -0.001484
                                                         0.039194      -0.000150
                          1       7    4dxz              9.042730       1.904809
                                                         3.882225       0.921562
                                                         1.512880       1.513195
                                                         0.586631       0.790419
                                                         0.222851       0.030900
                                                         0.084583      -0.001484
                                                         0.039194      -0.000150
                          1       7    4dy2              9.042730       1.099742
                                                         3.882225       0.532064
                                                         1.512880       0.873643
                                                         0.586631       0.456348
                                                         0.222851       0.017840
                                                         0.084583      -0.000857
                                                         0.039194      -0.000086
                          1       7    4dyz              9.042730       1.904809
                                                         3.882225       0.921562
                                                         1.512880       1.513195
                                                         0.586631       0.790419
                                                         0.222851       0.030900
                                                         0.084583      -0.001484
                                                         0.039194      -0.000150
                          1       7    4dz2              9.042730       1.099742
                                                         3.882225       0.532064
                                                         1.512880       0.873643
                                                         0.586631       0.456348
                                                         0.222851       0.017840
                                                         0.084583      -0.000857
                                                         0.039194      -0.000086

       Atomic covalent radius [Angstrom]:                                  0.750

       Atomic van der Waals radius [Angstrom]:                             1.550

     GTH Potential information for                                       GTH-PBE

       Description:                       Goedecker-Teter-Hutter pseudopotential
                                           Goedecker et al., PRB 54, 1703 (1996)
                                          Hartwigsen et al., PRB 58, 3641 (1998)
                                                      Krack, TCA 114, 145 (2005)

       Gaussian exponent of the core charge distribution:               6.208322
       Electronic configuration (s p d ...):                               2   3

       Parameters of the local part of the GTH pseudopotential:

                          rloc        C1          C2          C3          C4
                        0.283791  -12.415226    1.868096

       Parameters of the non-local part of the GTH pseudopotential:

                   l      r(l)      h(i,j,l)

                   0    0.255405   13.630263
                   1    0.245495

  4. Atomic kind: H                                     Number of atoms:      64

     Orbital Basis Set                                     DZVP-MOLOPT-SR-GTH-q1

       Number of orbital shell sets:                                           1
       Number of orbital shells:                                               3
       Number of primitive Cartesian functions:                                5
       Number of Cartesian basis functions:                                    5
       Number of spherical basis functions:                                    5
       Norm type:                                                              2

       Normalised Cartesian orbitals:

                        Set   Shell   Orbital            Exponent    Coefficient

                          1       1    2s               10.068468      -0.133023
                                                         2.680223      -0.177618
                                                         0.791502      -0.258419
                                                         0.239116      -0.107525
                                                         0.082193      -0.014019

                          1       2    3s               10.068468       0.344673
                                                         2.680223       1.819821
                                                         0.791502      -0.999069
                                                         0.239116       0.017430
                                                         0.082193       0.082660

                          1       3    3px              10.068468       0.155326
                                                         2.680223       0.367157
                                                         0.791502       0.311480
                                                         0.239116       0.080105
                                                         0.082193       0.033440
                          1       3    3py              10.068468       0.155326
                                                         2.680223       0.367157
                                                         0.791502       0.311480
                                                         0.239116       0.080105
                                                         0.082193       0.033440
                          1       3    3pz              10.068468       0.155326
                                                         2.680223       0.367157
                                                         0.791502       0.311480
                                                         0.239116       0.080105
                                                         0.082193       0.033440

       Atomic covalent radius [Angstrom]:                                  0.320

       Atomic van der Waals radius [Angstrom]:                             1.090

     GTH Potential information for                                       GTH-PBE

       Description:                       Goedecker-Teter-Hutter pseudopotential
                                           Goedecker et al., PRB 54, 1703 (1996)
                                          Hartwigsen et al., PRB 58, 3641 (1998)
                                                      Krack, TCA 114, 145 (2005)

       Gaussian exponent of the core charge distribution:              12.500000
       Electronic configuration (s p d ...):                                   1

       Parameters of the local part of the GTH pseudopotential:

                          rloc        C1          C2          C3          C4
                        0.200000   -4.178900    0.724463

  5. Atomic kind: C                                     Number of atoms:      28

     Orbital Basis Set                                        TZVP-MOLOPT-GTH-q4

       Number of orbital shell sets:                                           1
       Number of orbital shells:                                               7
       Number of primitive Cartesian functions:                                7
       Number of Cartesian basis functions:                                   18
       Number of spherical basis functions:                                   17
       Norm type:                                                              2

       Normalised Cartesian orbitals:

                        Set   Shell   Orbital            Exponent    Coefficient

                          1       1    2s                6.132625      -0.263661
                                                         2.625196      -0.231112
                                                         1.045457       0.042712
                                                         0.478316       0.306085
                                                         0.178617       0.065483
                                                         0.075145       0.000568
                                                         0.030287       0.000417

                          1       2    3s                6.132625       0.131937
                                                         2.625196       0.414269
                                                         1.045457      -0.593590
                                                         0.478316       0.644922
                                                         0.178617       0.069203
                                                         0.075145      -0.145101
                                                         0.030287       0.008247

                          1       3    4s                6.132625      -1.009391
                                                         2.625196      -0.608763
                                                         1.045457      -0.320627
                                                         0.478316       1.417678
                                                         0.178617      -0.917862
                                                         0.075145       0.286664
                                                         0.030287      -0.031483

                          1       4    3px               6.132625       0.562677
                                                         2.625196       0.633910
                                                         1.045457       0.379157
                                                         0.478316       0.235193
                                                         0.178617       0.052379
                                                         0.075145       0.003677
                                                         0.030287       0.000105
                          1       4    3py               6.132625       0.562677
                                                         2.625196       0.633910
                                                         1.045457       0.379157
                                                         0.478316       0.235193
                                                         0.178617       0.052379
                                                         0.075145       0.003677
                                                         0.030287       0.000105
                          1       4    3pz               6.132625       0.562677
                                                         2.625196       0.633910
                                                         1.045457       0.379157
                                                         0.478316       0.235193
                                                         0.178617       0.052379
                                                         0.075145       0.003677
                                                         0.030287       0.000105

                          1       5    4px               6.132625      -0.472364
                                                         2.625196      -0.221326
                                                         1.045457      -0.481781
                                                         0.478316       0.135466
                                                         0.178617       0.072281
                                                         0.075145       0.024920
                                                         0.030287       0.002706
                          1       5    4py               6.132625      -0.472364
                                                         2.625196      -0.221326
                                                         1.045457      -0.481781
                                                         0.478316       0.135466
                                                         0.178617       0.072281
                                                         0.075145       0.024920
                                                         0.030287       0.002706
                          1       5    4pz               6.132625      -0.472364
                                                         2.625196      -0.221326
                                                         1.045457      -0.481781
                                                         0.478316       0.135466
                                                         0.178617       0.072281
                                                         0.075145       0.024920
                                                         0.030287       0.002706

                          1       6    5px               6.132625      -0.321125
                                                         2.625196      -0.513960
                                                         1.045457      -0.659092
                                                         0.478316       1.236398
                                                         0.178617      -0.279443
                                                         0.075145       0.042466
                                                         0.030287      -0.008547
                          1       6    5py               6.132625      -0.321125
                                                         2.625196      -0.513960
                                                         1.045457      -0.659092
                                                         0.478316       1.236398
                                                         0.178617      -0.279443
                                                         0.075145       0.042466
                                                         0.030287      -0.008547
                          1       6    5pz               6.132625      -0.321125
                                                         2.625196      -0.513960
                                                         1.045457      -0.659092
                                                         0.478316       1.236398
                                                         0.178617      -0.279443
                                                         0.075145       0.042466
                                                         0.030287      -0.008547

                          1       7    4dx2              6.132625       0.874783
                                                         2.625196       0.375772
                                                         1.045457       0.653959
                                                         0.478316       0.191007
                                                         0.178617       0.018656
                                                         0.075145       0.003649
                                                         0.030287      -0.000011
                          1       7    4dxy              6.132625       1.515169
                                                         2.625196       0.650856
                                                         1.045457       1.132690
                                                         0.478316       0.330834
                                                         0.178617       0.032314
                                                         0.075145       0.006321
                                                         0.030287      -0.000019
                          1       7    4dxz              6.132625       1.515169
                                                         2.625196       0.650856
                                                         1.045457       1.132690
                                                         0.478316       0.330834
                                                         0.178617       0.032314
                                                         0.075145       0.006321
                                                         0.030287      -0.000019
                          1       7    4dy2              6.132625       0.874783
                                                         2.625196       0.375772
                                                         1.045457       0.653959
                                                         0.478316       0.191007
                                                         0.178617       0.018656
                                                         0.075145       0.003649
                                                         0.030287      -0.000011
                          1       7    4dyz              6.132625       1.515169
                                                         2.625196       0.650856
                                                         1.045457       1.132690
                                                         0.478316       0.330834
                                                         0.178617       0.032314
                                                         0.075145       0.006321
                                                         0.030287      -0.000019
                          1       7    4dz2              6.132625       0.874783
                                                         2.625196       0.375772
                                                         1.045457       0.653959
                                                         0.478316       0.191007
                                                         0.178617       0.018656
                                                         0.075145       0.003649
                                                         0.030287      -0.000011

       Atomic covalent radius [Angstrom]:                                  0.770

       Atomic van der Waals radius [Angstrom]:                             1.700

     GTH Potential information for                                       GTH-PBE

       Description:                       Goedecker-Teter-Hutter pseudopotential
                                           Goedecker et al., PRB 54, 1703 (1996)
                                          Hartwigsen et al., PRB 58, 3641 (1998)
                                                      Krack, TCA 114, 145 (2005)

       Gaussian exponent of the core charge distribution:               4.364419
       Electronic configuration (s p d ...):                               2   2

       Parameters of the local part of the GTH pseudopotential:

                          rloc        C1          C2          C3          C4
                        0.338471   -8.803674    1.339211

       Parameters of the non-local part of the GTH pseudopotential:

                   l      r(l)      h(i,j,l)

                   0    0.302576    9.622487
                   1    0.291507


 MOLECULE KIND INFORMATION


 All atoms are their own molecule, skipping detailed information


 TOTAL NUMBERS AND MAXIMUM NUMBERS

  Total number of            - Atomic kinds:                                   5
                             - Atoms:                                        116
                             - Shell sets:                                   116
                             - Shells:                                       528
                             - Primitive Cartesian functions:                660
                             - Cartesian basis functions:                   1196
                             - Spherical basis functions:                   1144

  Maximum angular momentum of- Orbital basis functions:                        2
                             - Local part of the GTH pseudopotential:          2
                             - Non-local part of the GTH pseudopotential:      4


 MODULE QUICKSTEP: ATOMIC COORDINATES IN ANGSTROM

   Atom Kind Element         X             Y             Z       Z(eff)     Mass
      1    1 I    53      1.057426      7.813504      3.202501   7.0000 126.9045
      2    2 Rb   37      8.594114      8.610043      6.392096   9.0000  85.4678
      3    3 N     7      5.392810      5.402807      4.010967   5.0000  14.0067
      4    4 H     1      6.042875      6.054149      4.494576   1.0000   1.0079
      5    3 N     7      3.805172      3.812151      2.830147   5.0000  14.0067
      6    5 C     6      5.120225      3.013007      3.009032   4.0000  12.0107
      7    4 H     1      4.916705      2.070782      3.610090   1.0000   1.0079
      8    4 H     1      5.461960      2.620121      2.151005   1.0000   1.0079
      9    5 C     6      6.145085      4.106591      3.511097   4.0000  12.0107
     10    4 H     1      6.826985      4.557086      2.830406   1.0000   1.0079
     11    4 H     1      6.714924      3.606093      4.230766   1.0000   1.0079
     12    5 C     6      3.067733      2.651170      2.179270   4.0000  12.0107
     13    4 H     1      2.141598      3.261145      2.037556   1.0000   1.0079
     14    1 I    53      4.201239      0.557881      6.264708   7.0000 126.9045
     15    5 C     6      4.087301      5.278062      2.187401   4.0000  12.0107
     16    4 H     1      4.687971      5.027329      1.404103   1.0000   1.0079
     17    4 H     1      3.127564      5.752035      1.932110   1.0000   1.0079
     18    5 C     6      4.822274      6.327560      3.019228   4.0000  12.0107
     19    4 H     1      4.148237      7.132674      3.419073   1.0000   1.0079
     20    4 H     1      5.660345      6.906112      2.577437   1.0000   1.0079
     21    4 H     1      2.853991      1.618723      2.670235   1.0000   1.0079
     22    1 I    53      7.189655      4.060683      0.089442   7.0000 126.9045
     23    5 C     6      3.197120      4.136422      4.029682   4.0000  12.0107
     24    4 H     1      2.356273      4.885085      3.881902   1.0000   1.0079
     25    4 H     1      2.843583      3.082365      4.420621   1.0000   1.0079
     26    5 C     6      4.273343      4.834873      4.805365   4.0000  12.0107
     27    4 H     1      4.708478      4.022936      5.415587   1.0000   1.0079
     28    4 H     1      3.892504      5.785574      5.291039   1.0000   1.0079
     29    4 H     1      3.537667      2.402828      1.331956   1.0000   1.0079
     30    1 I    53      8.434876      7.813504      3.202501   7.0000 126.9045
     31    2 Rb   37     15.971564      8.610043      6.392096   9.0000  85.4678
     32    3 N     7     11.432892      6.142427      2.992512   5.0000  14.0067
     33    4 H     1     11.240225      7.259919      2.834278   1.0000   1.0079
     34    3 N     7     11.903356      3.413672      3.379063   5.0000  14.0067
     35    5 C     6     13.174294      4.333085      3.505031   4.0000  12.0107
     36    4 H     1     13.428506      4.313132      4.441013   1.0000   1.0079
     37    4 H     1     13.961862      3.809143      2.985026   1.0000   1.0079
     38    5 C     6     12.924865      5.916043      3.039104   4.0000  12.0107
     39    4 H     1     13.316645      6.089792      2.142229   1.0000   1.0079
     40    4 H     1     13.334908      6.758469      3.622609   1.0000   1.0079
     41    5 C     6     12.203026      2.105040      3.602475   4.0000  12.0107
     42    4 H     1     11.245345      1.653970      3.441272   1.0000   1.0079
     43    1 I    53     12.326442      0.599897      6.112411   7.0000 126.9045
     44    5 C     6     11.377050      3.643149      2.139905   4.0000  12.0107
     45    4 H     1     12.207361      3.433034      1.529684   1.0000   1.0079
     46    4 H     1     10.566417      2.838316      2.011743   1.0000   1.0079
     47    5 C     6     10.851219      5.233766      2.013292   4.0000  12.0107
     48    4 H     1      9.761556      5.277652      2.108026   1.0000   1.0079
     49    4 H     1     11.168998      5.761221      1.179142   1.0000   1.0079
     50    4 H     1     12.515119      2.138694      4.368995   1.0000   1.0079
     51    1 I    53     13.980815      4.118075      1.018326   7.0000 126.9045
     52    5 C     6     10.865507      3.965026      4.251287   4.0000  12.0107
     53    4 H     1      9.912320      3.432244      4.033425   1.0000   1.0079
     54    4 H     1     11.176145      3.624053      5.135773   1.0000   1.0079
     55    5 C     6     10.800212      5.665882      4.153456   4.0000  12.0107
     56    4 H     1     11.367041      6.209300      4.847699   1.0000   1.0079
     57    4 H     1     10.138492      5.939186      4.063110   1.0000   1.0079
     58    4 H     1     12.935853      1.934119      2.944887   1.0000   1.0079
     59    1 I    53      1.631849      8.338199      9.655774   7.0000 126.9045
     60    2 Rb   37      9.168537      9.134739     12.845369   9.0000  85.4678
     61    3 N     7      4.935009      5.758345     10.965531   5.0000  14.0067
     62    4 H     1      4.934680      6.303128     11.764962   1.0000   1.0079
     63    3 N     7      4.935863      4.428008      9.013286   5.0000  14.0067
     64    5 C     6      6.120420      3.942078      9.746378   4.0000  12.0107
     65    4 H     1      5.934370      2.783883     10.017803   1.0000   1.0079
     66    4 H     1      6.829444      3.996309      9.248057   1.0000   1.0079
     67    5 C     6      6.248556      4.971033     10.804715   4.0000  12.0107
     68    4 H     1      7.018321      5.830746     10.660549   1.0000   1.0079
     69    4 H     1      6.440898      4.350129     11.621699   1.0000   1.0079
     70    5 C     6      4.936187      3.641522      7.859054   4.0000  12.0107
     71    4 H     1      4.094892      4.033154      7.335435   1.0000   1.0079
     72    1 I    53      4.776795      1.123263     12.420744   7.0000 126.9045
     73    5 C     6      5.028679      6.098764      8.808460   4.0000  12.0107
     74    4 H     1      6.034019      6.344546      8.459983   1.0000   1.0079
     75    4 H     1      4.273947      6.406535      8.160551   1.0000   1.0079
     76    5 C     6      4.755909      6.879330      9.977276   4.0000  12.0107
     77    4 H     1      3.728146      7.280987     10.042067   1.0000   1.0079
     78    4 H     1      5.463782      7.792329     10.120797   1.0000   1.0079
     79    4 H     1      4.836950      2.445137      8.026452   1.0000   1.0079
     80    1 I    53      7.764078      4.585378      6.542715   7.0000 126.9045
     81    5 C     6      3.657724      4.072135      9.701463   4.0000  12.0107
     82    4 H     1      2.838719      4.612881      9.232698   1.0000   1.0079
     83    4 H     1      3.515847      2.864494      9.713338   1.0000   1.0079
     84    5 C     6      3.800928      4.639107     10.961659   4.0000  12.0107
     85    4 H     1      4.058766      3.748798     11.585432   1.0000   1.0079
     86    4 H     1      2.900317      5.207483     11.263672   1.0000   1.0079
     87    4 H     1      5.876883      3.885163      7.391837   1.0000   1.0079
     88    1 I    53      9.009299      8.338199      9.655774   7.0000 126.9045
     89    2 Rb   37     16.545987      9.134739     12.845369   9.0000  85.4678
     90    3 N     7     13.451226      5.875491     10.389124   5.0000  14.0067
     91    4 H     1     14.168431      6.494068     10.825366   1.0000   1.0079
     92    3 N     7     11.699549      4.364890      9.323947   5.0000  14.0067
     93    5 C     6     12.749432      3.347655      9.847307   4.0000  12.0107
     94    4 H     1     12.264805      2.714973     10.568654   1.0000   1.0079
     95    4 H     1     13.084362      2.599699      9.155904   1.0000   1.0079
     96    5 C     6     13.926030      4.296828     10.273998   4.0000  12.0107
     97    4 H     1     14.762418      4.320597      9.643126   1.0000   1.0079
     98    4 H     1     14.270093      3.930039     11.142350   1.0000   1.0079
     99    5 C     6     10.663884      3.471894      8.694108   4.0000  12.0107
    100    4 H     1      9.968155      4.132703      8.310654   1.0000   1.0079
    101    1 I    53     12.154245      1.123263     12.420744   7.0000 126.9045
    102    5 C     6     12.386450      5.457666      8.474954   4.0000  12.0107
    103    4 H     1     12.993452      4.805233      7.867443   1.0000   1.0079
    104    4 H     1     11.609397      6.054337      7.994831   1.0000   1.0079
    105    5 C     6     13.237296      6.549481      9.180297   4.0000  12.0107
    106    4 H     1     12.734161      7.611607      9.305491   1.0000   1.0079
    107    4 H     1     14.224986      6.736956      8.776709   1.0000   1.0079
    108    4 H     1     10.161451      2.719080      9.326270   1.0000   1.0079
    109    1 I    53     15.141528      4.585378      6.542715   7.0000 126.9045
    110    5 C     6     11.054308      5.230508     10.313234   4.0000  12.0107
    111    4 H     1     10.442375      6.093543      9.901515   1.0000   1.0079
    112    4 H     1     10.424612      4.457669     10.832722   1.0000   1.0079
    113    5 C     6     12.155861      5.888047     11.084013   4.0000  12.0107
    114    4 H     1     12.311146      5.223434     11.886800   1.0000   1.0079
    115    4 H     1     11.957014      7.044208     11.307941   1.0000   1.0079
    116    4 H     1     11.154103      2.832198      8.005156   1.0000   1.0079



 SCF PARAMETERS         Density guess:                                    ATOMIC
                        --------------------------------------------------------
                        max_scf:                                              15
                        max_scf_history:                                       0
                        max_diis:                                              4
                        --------------------------------------------------------
                        eps_scf:                                        1.00E-05
                        eps_scf_history:                                0.00E+00
                        eps_diis:                                       1.00E-01
                        eps_eigval:                                     1.00E-05
                        --------------------------------------------------------
                        level_shift [a.u.]:                             0.000000
                        --------------------------------------------------------
                        Outer loop SCF in use 
                        No variables optimised in outer loop
                        eps_scf                                         1.00E-05
                        max_scf                                               20
                        No outer loop optimization
                        step_size                                       5.00E-01

 PW_GRID| Information for grid number                                          1
 PW_GRID| Grid distributed over                                    18 processors
 PW_GRID| Real space group dimensions                                    18    1
 PW_GRID| the grid is blocked:                                                NO
 PW_GRID| Cutoff [a.u.]                                                    200.0
 PW_GRID| spherical cutoff:                                                   NO
 PW_GRID|   Bounds   1            -90      89                Points:         180
 PW_GRID|   Bounds   2            -50      49                Points:         100
 PW_GRID|   Bounds   3            -80      79                Points:         160
 PW_GRID| Volume element (a.u.^3)  0.3645E-02     Volume (a.u.^3)     10496.7353
 PW_GRID| Grid span                                                    FULLSPACE
 PW_GRID|   Distribution                         Average         Max         Min
 PW_GRID|   G-Vectors                           160000.0      160020      159840
 PW_GRID|   G-Rays                                 888.9         889         888
 PW_GRID|   Real Space Points                   160000.0      160000      160000

 PW_GRID| Information for grid number                                          2
 PW_GRID| Number of the reference grid                                         1
 PW_GRID| Grid distributed over                                    18 processors
 PW_GRID| Real space group dimensions                                    18    1
 PW_GRID| the grid is blocked:                                                NO
 PW_GRID| Cutoff [a.u.]                                                     66.7
 PW_GRID| spherical cutoff:                                                   NO
 PW_GRID|   Bounds   1            -54      53                Points:         108
 PW_GRID|   Bounds   2            -30      29                Points:          60
 PW_GRID|   Bounds   3            -48      47                Points:          96
 PW_GRID| Volume element (a.u.^3)  0.1687E-01     Volume (a.u.^3)     10496.7353
 PW_GRID| Grid span                                                    FULLSPACE
 PW_GRID|   Distribution                         Average         Max         Min
 PW_GRID|   G-Vectors                            34560.0       35100       34128
 PW_GRID|   G-Rays                                 320.0         325         316
 PW_GRID|   Real Space Points                    34560.0       34560       34560

 PW_GRID| Information for grid number                                          3
 PW_GRID| Number of the reference grid                                         1
 PW_GRID| Grid distributed over                                    18 processors
 PW_GRID| Real space group dimensions                                    18    1
 PW_GRID| the grid is blocked:                                                NO
 PW_GRID| Cutoff [a.u.]                                                     22.2
 PW_GRID| spherical cutoff:                                                   NO
 PW_GRID|   Bounds   1            -30      29                Points:          60
 PW_GRID|   Bounds   2            -18      17                Points:          36
 PW_GRID|   Bounds   3            -27      26                Points:          54
 PW_GRID| Volume element (a.u.^3)  0.8999E-01     Volume (a.u.^3)     10496.7353
 PW_GRID| Grid span                                                    FULLSPACE
 PW_GRID|   Distribution                         Average         Max         Min
 PW_GRID|   G-Vectors                             6480.0        6540        6420
 PW_GRID|   G-Rays                                 108.0         109         107
 PW_GRID|   Real Space Points                     6480.0        7776        5832

 PW_GRID| Information for grid number                                          4
 PW_GRID| Number of the reference grid                                         1
 PW_GRID| Grid distributed over                                    18 processors
 PW_GRID| Real space group dimensions                                    18    1
 PW_GRID| the grid is blocked:                                                NO
 PW_GRID| Cutoff [a.u.]                                                      7.4
 PW_GRID| spherical cutoff:                                                   NO
 PW_GRID|   Bounds   1            -18      17                Points:          36
 PW_GRID|   Bounds   2            -10       9                Points:          20
 PW_GRID|   Bounds   3            -16      15                Points:          32
 PW_GRID| Volume element (a.u.^3)  0.4556         Volume (a.u.^3)     10496.7353
 PW_GRID| Grid span                                                    FULLSPACE
 PW_GRID|   Distribution                         Average         Max         Min
 PW_GRID|   G-Vectors                             1280.0        1404        1152
 PW_GRID|   G-Rays                                  35.6          39          32
 PW_GRID|   Real Space Points                     1280.0        1280        1280

 POISSON| Solver                                                        PERIODIC
 POISSON| Periodicity                                                        XYZ

 RS_GRID| Information for grid number                                          1
 RS_GRID|   Bounds   1            -90      89                Points:         180
 RS_GRID|   Bounds   2            -50      49                Points:         100
 RS_GRID|   Bounds   3            -80      79                Points:         160
 RS_GRID| Real space distribution over                                  6 groups
[...]
 flops   383 x    32 x     8            297085440       0.0%    100.0%      0.0%
 flops    13 x    13 x    32            299495040       0.0%    100.0%      0.0%
 flops    17 x     8 x     5            460615680       0.0%    100.0%      0.0%
 flops     5 x     8 x    17            460615680       0.0%    100.0%      0.0%
 flops    40 x    32 x   167            525849600       0.0%    100.0%      0.0%
 flops    40 x    32 x   173            544742400       0.0%    100.0%      0.0%
 flops    13 x     5 x    32            567091200       0.0%    100.0%      0.0%
 flops     5 x    13 x    32            567091200       0.0%    100.0%      0.0%
 flops    40 x    32 x   182            573081600       0.0%    100.0%      0.0%
 flops    17 x     8 x    17            880927488       0.0%    100.0%      0.0%
 flops    40 x    32 x    32            968704000       0.0%    100.0%      0.0%
 flops    17 x    13 x    32           1054435200       0.0%    100.0%      0.0%
 flops    13 x    17 x    32           1114688640       0.0%    100.0%      0.0%
 flops    13 x    32 x    13           1144765440       0.0%    100.0%      0.0%
 flops     5 x     5 x    32           1181440000       0.0%    100.0%      0.0%
 flops   380 x    32 x   167           1401196800       0.0%    100.0%      0.0%
 flops   381 x    32 x   167           1404884160       0.0%    100.0%      0.0%
 flops   383 x    32 x   167           1412258880       0.0%    100.0%      0.0%
 flops   380 x    32 x   173           1451539200       0.0%    100.0%      0.0%
 flops   381 x    32 x   173           1455359040       0.0%    100.0%      0.0%
 flops   383 x    32 x   173           1462998720       0.0%    100.0%      0.0%
 flops   380 x    32 x   182           1527052800       0.0%    100.0%      0.0%
 flops   381 x    32 x   182           1531071360       0.0%    100.0%      0.0%
 flops   383 x    32 x   182           1539108480       0.0%    100.0%      0.0%
 flops    64 x    32 x   167           1682718720       0.0%    100.0%      0.0%
 flops    64 x    32 x   173           1743175680       0.0%    100.0%      0.0%
 flops    64 x    32 x   182           1833861120       0.0%    100.0%      0.0%
 flops     5 x    17 x    32           2217017600       0.0%    100.0%      0.0%
 flops    17 x     5 x    32           2232467200       0.0%    100.0%      0.0%
 flops    13 x    32 x     5           2348236800       0.0%    100.0%      0.0%
 flops     5 x    32 x    13           2348236800       0.0%    100.0%      0.0%
 flops    64 x    32 x    32           3099852800       0.0%    100.0%      0.0%
 flops    17 x    17 x    32           4373009280       0.0%    100.0%      0.0%
 flops    13 x    32 x    17           4491002880       0.0%    100.0%      0.0%
 flops    17 x    32 x    13           4491002880       0.0%    100.0%      0.0%
 flops     5 x    32 x     5           4816896000       0.0%    100.0%      0.0%
 flops   380 x    32 x    32           5895168000       0.0%    100.0%      0.0%
 flops   381 x    32 x    32           5910681600       0.0%    100.0%      0.0%
 flops   383 x    32 x    32           5941708800       0.0%    100.0%      0.0%
 flops    17 x    32 x     5           9212313600       0.0%    100.0%      0.0%
 flops     5 x    32 x    17           9212313600       0.0%    100.0%      0.0%
 flops    17 x    32 x    17          17618549760       0.0%    100.0%      0.0%
 flops inhomo. stacks                 42816095232     100.0%      0.0%      0.0%
 flops total                       160.783944E+09      26.6%     73.4%      0.0%
 flops max/rank                     10.701498E+09      28.9%     71.1%      0.0%
 matmuls inhomo. stacks                   1016646     100.0%      0.0%      0.0%
 matmuls total                           14881032       6.8%     93.2%      0.0%
 number of processed stacks                353700      11.5%     88.5%      0.0%
 average stack size                                    25.0      44.3       0.0
 marketing flops                   166.916751E+09
 -------------------------------------------------------------------------------
 # multiplications                           1321
 max memory usage/rank             277.905408E+06
 # max total images/rank                        2
 # max 3D layers                                1
 # MPI messages exchanged                  214002
 MPI messages size (bytes):
  total size                        18.643841E+09
  min size                           0.000000E+00
  max size                         661.824000E+03
  average size                      87.119938E+03
 MPI breakdown and total messages size (bytes):
             size <=      128                1332                        0
       128 < size <=     8192               63039                376355328
      8192 < size <=    32768               47571                725728256
     32768 < size <=   131072               82620               6234342400
    131072 < size <=  4194304               19440              11307479040
   4194304 < size <= 16777216                   0                        0
  16777216 < size                               0                        0
 -------------------------------------------------------------------------------

 *** WARNING in dbcsr_mm.F:290 :: Using a non-square number of MPI ranks ***
 *** might lead to poor performance. Used ranks: 18 Suggested: 16 36     ***

 -------------------------------------------------------------------------------
 -                                                                             -
 -                      DBCSR MESSAGE PASSING PERFORMANCE                      -
 -                                                                             -
 -------------------------------------------------------------------------------
 ROUTINE             CALLS      AVE VOLUME [Bytes]
 MP_Bcast               93                     12.
 MP_Allreduce         7222                     11.
 MP_Alltoall          4682                  13960.
 MP_ISend            30382                  38744.
 MP_IRecv            30382                  38068.
 -------------------------------------------------------------------------------

 -------------------------------------------------------------------------------
 -                                                                             -
 -                                DBM STATISTICS                               -
 -                                                                             -
 -------------------------------------------------------------------------------
    M  x    N  x    K                                          COUNT     PERCENT
 -------------------------------------------------------------------------------

 -------------------------------------------------------------------------------
 -                                                                             -
 -                                GRID STATISTICS                              -
 -                                                                             -
 -------------------------------------------------------------------------------
 LP    KERNEL             BACKEND                              COUNT     PERCENT
 3     collocate general  REF                               10121241      23.57%
 3     integrate general  REF                                9525581      22.18%
 4     collocate general  REF                                8480567      19.75%
 4     integrate general  REF                                7974317      18.57%
 2     collocate general  REF                                2850282       6.64%
 2     integrate general  REF                                2680174       6.24%
 6     integrate general  REF                                 604012       1.41%
 7     integrate general  REF                                 506250       1.18%
 5     integrate general  REF                                 170108       0.40%
 0     collocate general  REF                                  16704       0.04%
 0     integrate general  REF                                   8352       0.02%
 -------------------------------------------------------------------------------

 MEMORY| Estimated peak process memory [MiB]                                 266

 -------------------------------------------------------------------------------
 ----                             MULTIGRID INFO                            ----
 -------------------------------------------------------------------------------
 count for grid        1:         833647          cutoff [a.u.]          200.00
 count for grid        2:         706059          cutoff [a.u.]           66.67
 count for grid        3:         590722          cutoff [a.u.]           22.22
 count for grid        4:         535223          cutoff [a.u.]            7.41
 total gridlevel count  :        2665651

 -------------------------------------------------------------------------------
 -                                                                             -
 -                         MESSAGE PASSING PERFORMANCE                         -
 -                                                                             -
 -------------------------------------------------------------------------------

 ROUTINE             CALLS      AVE VOLUME [Bytes]
 MP_Group               16
 MP_Bcast             1606                 635311.
 MP_Allreduce         4741                    480.
 MP_Sync                74
 MP_Alltoall          1329                6114136.
 MP_SendRecv          3689                 108239.
 MP_ISendRecv         3417                 116309.
 MP_Wait              5367
 MP_comm_split          29
 MP_ISend             1350                 978044.
 MP_IRecv             1350                 978044.
 -------------------------------------------------------------------------------


 -------------------------------------------------------------------------------
 -                                                                             -
 -                           R E F E R E N C E S                               -
 -                                                                             -
 -------------------------------------------------------------------------------
 
 CP2K version 2023.1, the CP2K developers group (2023).
 CP2K is freely available from https://www.cp2k.org/ .

 Kuehne,Thomas D.; Iannuzzi,Marcella; Del Ben,Mauro;
 Rybkin,Vladimir V.; Seewald,Patrick; Stein,Frederick; Laino,Teodoro;
 Khaliullin,Rustam Z.; Schuett,Ole; Schiffmann,Florian; Golze,Dorothea;
 Wilhelm,Jan; Chulkov,Sergey; Bani-Hashemian,Mohammad Hossein;
 Weber,Valery; Borstnik,Urban; Taillefumier,Mathieu;
 Jakobovits,Alice Shoshana; Lazzaro,Alfio; Pabst,Hans; Mueller,Tiziano;
 Schade,Robert; Guidon,Manuel; Andermatt,Samuel; Holmberg,Nico;
 Schenter,Gregory K.; Hehn,Anna; Bussy,Augustin; Belleflamme,Fabian;
 Tabacchi,Gloria; Gloess,Andreas; Lass,Michael; Bethune,Iain;
 Mundy,Christopher J.; Plessl,Christian; Watkins,Matt;
 VandeVondele,Joost; Krack,Matthias; Hutter,Juerg. 
 The Journal of Chemical Physics, 152 (19), (2020). 
 CP2K: An electronic structure and molecular dynamics software package -
 Quickstep: Efficient and accurate electronic structure calculations.
 https://doi.org/10.1063/5.0007045

 Goerigk, Lars; Hansen, Andreas; Bauer, Christoph; Ehrlich, Stephan;
 Najibi, Asim; Grimme, Stefan. , 19 (48), (2017). 
 A look at the density functional theory zoo with the advanced GMTKN55 database
 for general main group thermochemistry, kinetics and noncovalent interactions.
 https://doi.org/10.1039/C7CP04913G

 Schuett, Ole; Messmer, Peter; Hutter, Juerg; VandeVondele, Joost. 
 Electronic Structure Calculations on Graphics Processing Units, John
 Wiley & Sons, Ltd, 173-190 (2016). 
 GPU-Accelerated Sparse Matrix-Matrix Multiplication for
 Linear Scaling Density Functional Theory.
 https://doi.org/10.1002/9781118670712.ch8

 Heinecke, A; Henry, G; Hutchinson, M; Pabst, H. 
 Proceedings of Intl. Supercomputing Conference, 981-991 (2016). 
 LIBXSMM: Accelerating Small Matrix Multiplications
 by Runtime Code Generation.
 https://doi.org/10.1109/SC.2016.83

 Borstnik, U; VandeVondele, J; Weber, V; Hutter, J. 
 PARALLEL COMPUTING, 40 (5-6), 47-58 (2014). 
 Sparse matrix multiplication: The distributed block-compressed sparse
 row library.
 https://doi.org/10.1016/j.parco.2014.03.012

 Hutter, J; Iannuzzi, M; Schiffmann, F; VandeVondele, J. 
 WIREs Comput Mol Sci., 4 (1), 15-25 (2014). 
 CP2K: atomistic simulations of condensed matter systems.
 https://doi.org/10.1002/wcms.1159

 Marek, A; Blum, V; Johanni, R; Havu, V; Lang, B; Auckenthaler, T;
 Heinecke, A; Bungartz, H; Lederer, H. 
 Journal of Physics: Condensed Matter, 26 (21), (2014). 
 The ELPA library: scalable parallel eigenvalue solutions for
 electronic structure
 theory and computational science.
 https://doi.org/10.1088/0953-8984/26/21/213201

 Grimme, S; Ehrlich, S; Goerigk, L. 
 JOURNAL OF COMPUTATIONAL CHEMISTRY, 32, 1456 (2011). 
 Effect of the damping function in dispersion corrected density functional theory.
 https://doi.org/10.1002/jcc.21759

 Grimme, S; Antony, J; Ehrlich, S; Krieg, H. 
 JOURNAL OF CHEMICAL PHYSICS, 132 (15), 154104 (2010). 
 A consistent and accurate ab initio parametrization of density
 functional dispersion correction (DFT-D) for the 94 elements H-Pu.
 https://doi.org/10.1063/1.3382344

 VandeVondele, J; Hutter, J. 
 JOURNAL OF CHEMICAL PHYSICS, 127 (11), 114105 (2007). 
 Gaussian basis sets for accurate calculations on molecular systems in
 gas and condensed phases.
 https://doi.org/10.1063/1.2770708

 Kuhne, TD; Krack, M; Mohamed, FR; Parrinello, M. 
 PHYSICAL REVIEW LETTERS, 98 (6), 066401 (2007). 
 Efficient and accurate Car-Parrinello-like approach to
 Born-Oppenheimer molecular dynamics.
 https://doi.org/10.1103/PhysRevLett.98.066401

 Bussi, G; Donadio, D; Parrinello, M. 
 JOURNAL OF CHEMICAL PHYSICS, 126 (1), 014101 (2007). 
 Canonical sampling through velocity rescaling.
 https://doi.org/10.1063/1.2408420

 Krack, M. 
 THEORETICAL CHEMISTRY ACCOUNTS, 114 (1-3), 145-152 (2005). 
 Pseudopotentials for H to Kr optimized for gradient-corrected
 exchange-correlation functionals.
 https://doi.org/10.1007/s00214-005-0655-y

 VandeVondele, J; Krack, M; Mohamed, F; Parrinello, M; Chassaing, T;
 Hutter, J. COMPUTER PHYSICS COMMUNICATIONS, 167 (2), 103-128 (2005). 
 QUICKSTEP: Fast and accurate density functional calculations using a
 mixed Gaussian and plane waves approach.
 https://doi.org/10.1016/j.cpc.2004.12.014

 Frigo, M; Johnson, SG. 
 PROCEEDINGS OF THE IEEE, 93 (2), 216-231 (2005). 
 The design and implementation of FFTW3.
 https://doi.org/10.1109/JPROC.2004.840301

 Kolafa, J. 
 JOURNAL OF COMPUTATIONAL CHEMISTRY, 25 (3), 335-342 (2004). 
 Time-reversible always stable predictor-corrector method for
 molecular dynamics of polarizable molecules.
 https://doi.org/10.1002/jcc.10385

 VandeVondele, J; Hutter, J. 
 JOURNAL OF CHEMICAL PHYSICS, 118 (10), 4365-4369 (2003). 
 An efficient orbital transformation method for electronic structure
 calculations.
 https://doi.org/10.1063/1.1543154

 Hartwigsen, C; Goedecker, S; Hutter, J. 
 PHYSICAL REVIEW B, 58 (7), 3641-3662 (1998). 
 Relativistic separable dual-space Gaussian pseudopotentials from H to Rn.
 https://doi.org/10.1103/PhysRevB.58.3641

 Zhang, YK; Yang, WT. 
 PHYSICAL REVIEW LETTERS, 80 (4), 890-890 (1998). 
 Comment on Generalized gradient approximation made simple.
 https://doi.org/10.1103/PhysRevLett.80.890

 Lippert, G; Hutter, J; Parrinello, M. 
 MOLECULAR PHYSICS, 92 (3), 477-487 (1997). 
 A hybrid Gaussian and plane wave density functional scheme.
 https://doi.org/10.1080/002689797170220

 Perdew, JP; Burke, K; Ernzerhof, M. 
 PHYSICAL REVIEW LETTERS, 77 (18), 3865-3868 (1996). 
 Generalized gradient approximation made simple.
 https://doi.org/10.1103/PhysRevLett.77.3865

 Goedecker, S; Teter, M; Hutter, J. 
 PHYSICAL REVIEW B, 54 (3), 1703-1710 (1996). 
 Separable dual-space Gaussian pseudopotentials.
 https://doi.org/10.1103/PhysRevB.54.1703


 -------------------------------------------------------------------------------
 -                                                                             -
 -                                T I M I N G                                  -
 -                                                                             -
 -------------------------------------------------------------------------------
 SUBROUTINE                       CALLS  ASD         SELF TIME        TOTAL TIME
                                MAXIMUM       AVERAGE  MAXIMUM  AVERAGE  MAXIMUM
 CP2K                                 1  1.0    0.014    0.023  241.050  241.051
 qs_mol_dyn_low                       1  2.0    0.004    0.005  240.813  240.814
 qs_forces                            4  3.8    0.001    0.001  240.780  240.781
 qs_energies                          4  4.8    0.000    0.000  215.094  215.095
 scf_env_do_scf                       4  5.8    0.000    0.001  206.029  206.030
 scf_env_do_scf_inner_loop           63  6.4    0.001    0.004  195.036  195.037
 rebuild_ks_matrix                   67  8.3    0.000    0.000  132.703  132.708
 qs_ks_build_kohn_sham_matrix        67  9.3    0.007    0.007  132.703  132.708
 sum_up_and_integrate                67 10.3    0.058    0.059  118.587  118.594
 integrate_v_rspace                  67 11.3    0.002    0.002  118.528  118.535
 grid_integrate_task_list            67 12.3  112.926  115.979  112.926  115.979
 velocity_verlet                      3  3.0    0.001    0.003  114.393  114.394
 qs_ks_update_qs_env                 69  7.4    0.000    0.000  113.163  113.167
 qs_rho_update_rho_low               67  7.5    0.000    0.000   96.150   96.156
 calculate_rho_elec                  67  8.5    0.058    0.058   96.150   96.155
 grid_collocate_task_list            67  9.5   90.785   92.930   90.785   92.930
 qs_ks_update_qs_env_forces           4  4.8    0.000    0.000   19.558   19.558
 qs_vxc_create                       67 10.3    0.001    0.001   12.305   12.367
 xc_vxc_pw_create                    67 11.3    0.288    0.294   12.304   12.366
 pw_transfer                       1277 12.5    0.058    0.066   11.005   11.062
 init_scf_loop                        6  6.5    0.000    0.000   10.989   10.989
 fft_wrap_pw1pw2                   1143 13.6    0.010    0.010   10.839   10.894
 fft_wrap_pw1pw2_200                741 15.0    0.909    0.931   10.379   10.426
 fft3d_ps                          1143 15.6    5.396    5.674    7.779    7.884
 xc_rho_set_and_dset_create          67 12.3    0.087    0.093    7.620    7.655
 density_rs2pw                       67  9.5    0.003    0.003    5.213    7.012
 xc_pw_derive                       402 13.3    0.003    0.003    6.425    6.519
 rs_pw_transfer                     552 11.8    0.006    0.006    4.630    6.371
 build_core_hamiltonian_matrix_       4  4.8    0.000    0.000    5.433    5.954
 init_scf_run                         4  5.8    0.000    0.000    5.867    5.867
 scf_env_initial_rho_setup            4  6.8    0.000    0.000    5.867    5.867
 mp_alltoall_d11v                  1074 13.9    3.127    5.772    3.127    5.772
 rs_gather_matrices                  67 12.3    0.021    0.022    3.095    5.746
 -------------------------------------------------------------------------------

 The number of warnings for this run is : 1
 
 -------------------------------------------------------------------------------
  **** **** ******  **  PROGRAM ENDED AT                 2023-09-26 17:14:30.596
 ***** ** ***  *** **   PROGRAM RAN ON                                        n1
 **    ****   ******    PROGRAM RAN BY                                    haorui
 ***** **    ** ** **   PROGRAM PROCESS ID                                143406
  **** **  *******  **  PROGRAM STOPPED IN    /home/haorui/GMY/MeHdabco_RbI3/npt
