      12
 i =       20, time =       20.000, E =       -68.9778215227
  O         6.3316694013       10.3265616457        7.6782392523
  H         6.1616125544       11.1315146003        8.2239437014
  H         5.7430023264       10.3807400784        6.9336632835
  O         9.1302710853        3.1889367305        0.0923448994
  H         9.4202654175        3.9665554155       -0.4318636659
  H         8.3566036625        2.7447792754       -0.3225657198
  O         8.1855081658        2.3324901533        8.5342295228
  H         8.5124785846        2.1917043131        7.6300685257
  H         7.2715408397        2.6874938692        8.5035021945
  O         5.8384192760        0.7389161185        0.6066193230
  H         6.8100691672        0.6360080101        0.4930624889
  H         5.4496269488        0.5871999743       -0.2229783996
      12
 i =       21, time =       21.000, E =       -68.9755437453
  O         6.3293442164       10.3288510035        7.6890530379
  H         6.1740088133       11.1227075298        8.2233525135
  H         5.7769852068       10.3802955549        6.9499194570
  O         9.1250871242        3.1883703779        0.0926188564
  H         9.4289965462        3.9283149440       -0.4278630874
  H         8.3858327801        2.7327027774       -0.3239566886
  O         8.1848476170        2.3295429395        8.5347657971
  H         8.5165756164        2.1908174768        7.6719777399
  H         7.2917933703        2.6717934790        8.4917815049
  O         5.8419706731        0.7321749871        0.5999709745
  H         6.7859792755        0.6611477233        0.4872188236
  H         5.4615480885        0.5949492113       -0.2334545867
      12
 i =       22, time =       22.000, E =       -68.9723248123
  O         6.3281856704       10.3305920763        7.7009772804
  H         6.1843416649       11.1136446689        8.2209119268
  H         5.7987343252       10.3828672891        6.9478903583
  O         9.1202725251        3.1873331964        0.0935722685
  H         9.4378150638        3.8939808908       -0.4307181071
  H         8.4139336323        2.7247774685       -0.3310485390
  O         8.1840146377        2.3261956596        8.5367461425
  H         8.5236234033        2.1884016296        7.6935468334
  H         7.3114734045        2.6581072367        8.4768182088
  O         5.8452782009        0.7260571216        0.5950798598
  H         6.7689899409        0.6869585853        0.4797432756
  H         5.4641863879        0.5990944245       -0.2660469140
