#     Step Nr.          Time[fs]        Kin.[a.u.]          Temp[K]            Pot.[a.u.]        Cons Qty[a.u.]        UsedTime[s]
        20           20.000000         0.023548744       413.116461989       -68.977821523       -68.938997773        60.277769099
        21           21.000000         0.021234705       372.521196861       -68.975543745       -68.938783638        18.870602752
        22           22.000000         0.018025570       316.223219413       -68.972324812       -68.938309176        18.600492027
