 *******************************************************************************
 *                            RESTART INFORMATION                              *
 *******************************************************************************
 *                                                                             *
 *    RESTART FILE NAME: H2O_run-1.restart                                     *
 *                                                                             *
 * RESTARTED QUANTITIES:                                                       *
 *                       CELL                                                  *
 *                       COORDINATES                                           *
 *                       RANDOM NUMBER GENERATOR                               *
 *                       VELOCITIES                                            *
 *                       MD COUNTERS                                           *
 *                       MD AVERAGES                                           *
 *                       PARTICLE THERMOSTAT                                   *
 *                       REAL TIME PROPAGATION                                 *
 *                       PINT BEAD POSITIONS                                   *
 *                       PINT BEAD VELOCITIES                                  *
 *                       PINT NOSE THERMOSTAT                                  *
 *                       PINT GLE THERMOSTAT                                   *
 *                       HELIUM BEAD POSITIONS                                 *
 *                       HELIUM PERMUTATION STATE                              *
 *                       HELIUM FORCES ON SOLUTE                               *
 *                       HELIUM RNG STATE                                      *
 *******************************************************************************

 DBCSR| CPU Multiplication driver                                           XSMM (U)
 DBCSR| Multrec recursion limit                                              512 (U)
 DBCSR| Multiplication stack size                                           1000 (D)
 DBCSR| Maximum elements for images                                    UNLIMITED (U)
 DBCSR| Multiplicative factor virtual images                                   1 (U)
 DBCSR| Use multiplication densification                                       T (D)
 DBCSR| Multiplication size stacks                                             3 (U)
 DBCSR| Use memory pool for CPU allocation                                     F (U)
 DBCSR| Number of 3D layers                                               SINGLE (U)
 DBCSR| Use MPI memory allocation                                              F (U)
 DBCSR| Use RMA algorithm                                                      F (U)
 DBCSR| Use Communication thread                                               T (U)
 DBCSR| Communication thread load                                             87 (D)
 DBCSR| MPI: My process id                                                     0
 DBCSR| MPI: Number of processes                                              40
 DBCSR| OMP: Current number of threads                                         1
 DBCSR| OMP: Max number of threads                                             1
 DBCSR| Split modifier for TAS multiplication algorithm                  1.0E+00 (U)


  **** **** ******  **  PROGRAM STARTED AT               2024-08-26 10:50:26.421
 ***** ** ***  *** **   PROGRAM STARTED ON                                master
 **    ****   ******    PROGRAM STARTED BY                                 rajib
 ***** **    ** ** **   PROGRAM PROCESS ID                                 93872
  **** **  *******  **  PROGRAM STARTED IN   /home/rajib/DEEPMD/WATER/dpgen_traj

 CP2K| version string:                                       CP2K version 2023.2
 CP2K| source code revision number:                                  git:65cca6c
 CP2K| cp2kflags: omp libint fftw3 libxc elpa parallel mpi_f08 scalapack cosma x
 CP2K|            smm mkl
 CP2K| is freely available from                            https://www.cp2k.org/
 CP2K| Program compiled at                           Tue Oct 3 12:44:58 IST 2023
 CP2K| Program compiled on                                                master
 CP2K| Program compiled for                                                local
 CP2K| Data directory path                   /apps/intel_2022.3/cp2k/2023.2/data
 CP2K| Input file name                                          water_revPBE.inp
 
 GLOBAL| Force Environment number                                              1
 GLOBAL| Basis set file name                                        BASIS_MOLOPT
 GLOBAL| Potential file name                                           POTENTIAL
 GLOBAL| MM Potential file name                                     MM_POTENTIAL
 GLOBAL| Coordinate file name                                      __STD_INPUT__
 GLOBAL| Method name                                                        CP2K
 GLOBAL| Project name                                                H2O_restart
 GLOBAL| Run type                                                             MD
 GLOBAL| FFT library                                                       FFTW3
 GLOBAL| Diagonalization library                                            ELPA
 GLOBAL| DGEMM library                                                      BLAS
 GLOBAL| Minimum number of eigenvectors for ELPA usage                        16
 GLOBAL| Orthonormality check for eigenvectors                          DISABLED
 GLOBAL| Matrix multiplication library                                     COSMA
 GLOBAL| All-to-all communication in single precision                          F
 GLOBAL| FFTs using library dependent lengths                                  T
 GLOBAL| Grid backend                                                       AUTO
 GLOBAL| Global print level                                               MEDIUM
 GLOBAL| MPI I/O enabled                                                       T
 GLOBAL| Total number of message passing processes                            40
 GLOBAL| Number of threads for this process                                    1
 GLOBAL| This output is from process                                           0
 GLOBAL| Stack size for threads created by OpenMP (OMP_STACKSIZE)        default
 GLOBAL| CPU model name              Intel(R) Xeon(R) Silver 4214R CPU @ 2.40GHz
 GLOBAL| CPUID                                                              1003

 MEMORY| system memory details [Kb]
 MEMORY|                        rank 0           min           max       average
 MEMORY| MemTotal             65425792      65425792      65425792      65425792
 MEMORY| MemFree               3729088       3717680       3731072       3721015
 MEMORY| Buffers                813876        813876        813876        813876
 MEMORY| Cached               46403440      46403440      46403440      46403440
 MEMORY| Slab                  2519552       2519552       2519552       2519552
 MEMORY| SReclaimable          2162280       2162280       2162280       2162280
 MEMORY| MemLikelyFree        53108684      53097276      53110668      53100611


 *** Fundamental physical constants (SI units) ***

 *** Literature: B. J. Mohr and B. N. Taylor,
 ***             CODATA recommended values of the fundamental physical
 ***             constants: 2006, Web Version 5.1
 ***             http://physics.nist.gov/constants

 Speed of light in vacuum [m/s]                             2.99792458000000E+08
 Magnetic constant or permeability of vacuum [N/A**2]       1.25663706143592E-06
 Electric constant or permittivity of vacuum [F/m]          8.85418781762039E-12
 Planck constant (h) [J*s]                                  6.62606896000000E-34
 Planck constant (h-bar) [J*s]                              1.05457162825177E-34
 Elementary charge [C]                                      1.60217648700000E-19
 Electron mass [kg]                                         9.10938215000000E-31
 Electron g factor [ ]                                     -2.00231930436220E+00
 Proton mass [kg]                                           1.67262163700000E-27
 Fine-structure constant                                    7.29735253760000E-03
 Rydberg constant [1/m]                                     1.09737315685270E+07
 Avogadro constant [1/mol]                                  6.02214179000000E+23
 Boltzmann constant [J/K]                                   1.38065040000000E-23
 Atomic mass unit [kg]                                      1.66053878200000E-27
 Bohr radius [m]                                            5.29177208590000E-11

 *** Conversion factors ***

 [u] -> [a.u.]                                              1.82288848426455E+03
 [Angstrom] -> [Bohr] = [a.u.]                              1.88972613288564E+00
 [a.u.] = [Bohr] -> [Angstrom]                              5.29177208590000E-01
 [a.u.] -> [s]                                              2.41888432650478E-17
 [a.u.] -> [fs]                                             2.41888432650478E-02
 [a.u.] -> [J]                                              4.35974393937059E-18
 [a.u.] -> [N]                                              8.23872205491840E-08
 [a.u.] -> [K]                                              3.15774647902944E+05
 [a.u.] -> [kJ/mol]                                         2.62549961709828E+03
 [a.u.] -> [kcal/mol]                                       6.27509468713739E+02
 [a.u.] -> [Pa]                                             2.94210107994716E+13
 [a.u.] -> [bar]                                            2.94210107994716E+08
 [a.u.] -> [atm]                                            2.90362800883016E+08
 [a.u.] -> [eV]                                             2.72113838565563E+01
 [a.u.] -> [Hz]                                             6.57968392072181E+15
 [a.u.] -> [1/cm] (wave numbers)                            2.19474631370540E+05
 [a.u./Bohr**2] -> [1/cm]                                   5.14048714338585E+03
 

 CELL_TOP| Volume [angstrom^3]:                                      2000.376000
 CELL_TOP| Vector a [angstrom    12.600     0.000     0.000   |a| =    12.600000
 CELL_TOP| Vector b [angstrom     0.000    12.600     0.000   |b| =    12.600000
 CELL_TOP| Vector c [angstrom     0.000     0.000    12.600   |c| =    12.600000
 CELL_TOP| Angle (b,c), alpha [degree]:                                90.000000
 CELL_TOP| Angle (a,c), beta  [degree]:                                90.000000
 CELL_TOP| Angle (a,b), gamma [degree]:                                90.000000
 CELL_TOP| Numerically orthorhombic:                                         YES
 CELL_TOP| Periodicity                                                       XYZ
 
 GENERATE|  Preliminary Number of Bonds generated:                             0
 GENERATE|  Achieved consistency in connectivity generation.

 CELL| Volume [angstrom^3]:                                          2000.376000
 CELL| Vector a [angstrom]:      12.600     0.000     0.000   |a| =    12.600000
 CELL| Vector b [angstrom]:       0.000    12.600     0.000   |b| =    12.600000
 CELL| Vector c [angstrom]:       0.000     0.000    12.600   |c| =    12.600000
 CELL| Angle (b,c), alpha [degree]:                                    90.000000
 CELL| Angle (a,c), beta  [degree]:                                    90.000000
 CELL| Angle (a,b), gamma [degree]:                                    90.000000
 CELL| Numerically orthorhombic:                                             YES
 CELL| Periodicity                                                           XYZ

 CELL_REF| Volume [angstrom^3]:                                      2000.376000
 CELL_REF| Vector a [angstrom    12.600     0.000     0.000   |a| =    12.600000
 CELL_REF| Vector b [angstrom     0.000    12.600     0.000   |b| =    12.600000
 CELL_REF| Vector c [angstrom     0.000     0.000    12.600   |c| =    12.600000
 CELL_REF| Angle (b,c), alpha [degree]:                                90.000000
 CELL_REF| Angle (a,c), beta  [degree]:                                90.000000
 CELL_REF| Angle (a,b), gamma [degree]:                                90.000000
 CELL_REF| Numerically orthorhombic:                                         YES
 CELL_REF| Periodicity                                                       XYZ

 *******************************************************************************
 *******************************************************************************
 **                                                                           **
 **     #####                         ##              ##                      **
 **    ##   ##            ##          ##              ##                      **
 **   ##     ##                       ##            ######                    **
 **   ##     ##  ##   ##  ##   #####  ##  ##   ####   ##    #####    #####    **
 **   ##     ##  ##   ##  ##  ##      ## ##   ##      ##   ##   ##  ##   ##   **
 **   ##  ## ##  ##   ##  ##  ##      ####     ###    ##   ######   ######    **
 **    ##  ###   ##   ##  ##  ##      ## ##      ##   ##   ##       ##        **
 **     #######   #####   ##   #####  ##  ##  ####    ##    #####   ##        **
 **           ##                                                    ##        **
 **                                                                           **
 **                                                ... make the atoms dance   **
 **                                                                           **
 **            Copyright (C) by CP2K developers group (2000-2023)             **
 **                      J. Chem. Phys. 152, 194103 (2020)                    **
 **                                                                           **
 *******************************************************************************

 DFT| Spin restricted Kohn-Sham (RKS) calculation                            RKS
 DFT| Multiplicity                                                             1
 DFT| Number of spin states                                                    1
 DFT| Charge                                                                   0
 DFT| Self-interaction correction (SIC)                                       NO
 DFT| Cutoffs: density                                              1.000000E-10
 DFT|          gradient                                             1.000000E-10
 DFT|          tau                                                  1.000000E-10
 DFT|          cutoff_smoothing_range                               0.000000E+00
 DFT| XC density smoothing                                                  NONE
 DFT| XC derivatives                                                          PW

 FUNCTIONAL| PBE:
 FUNCTIONAL| revPBE, Yingkay Zhang and Weitao Yang, Phys. Rev. Letter, vol 80,n 
 FUNCTIONAL| 4, p. 890, (1998){spin unpolarized}                                

 vdW POTENTIAL|                                                   Pair Potential
 vdW POTENTIAL|          DFT-D3 (Version 3.1)
 vdW POTENTIAL|          Potential Form: S. Grimme et al, JCP 132: 154104 (2010)
 vdW POTENTIAL|          Zero Damping
 vdW POTENTIAL|          Cutoff Radius [Bohr]:                             75.59
 vdW POTENTIAL|          s6 Scaling Factor:                               1.0000
 vdW POTENTIAL|          sr6 Scaling Factor:                              0.9230
 vdW POTENTIAL|          s8 Scaling Factor:                               1.0100
 vdW POTENTIAL|          Cutoff for CN calculation:                   0.1000E-05

 QS| Method:                                                                 GPW
 QS| Density plane wave grid type                        NON-SPHERICAL FULLSPACE
 QS| Number of grid levels:                                                    5
 QS| Density cutoff [a.u.]:                                                200.0
 QS| Multi grid cutoff [a.u.]: 1) grid level                               200.0
 QS|                           2) grid level                                66.7
 QS|                           3) grid level                                22.2
 QS|                           4) grid level                                 7.4
 QS|                           5) grid level                                 2.5
 QS| Grid level progression factor:                                          3.0
 QS| Relative density cutoff [a.u.]:                                        30.0
 QS| Interaction thresholds: eps_pgf_orb:                                1.0E-06
 QS|                         eps_filter_matrix:                          0.0E+00
 QS|                         eps_core_charge:                            1.0E-14
 QS|                         eps_rho_gspace:                             1.0E-12
 QS|                         eps_rho_rspace:                             1.0E-12
 QS|                         eps_gvg_rspace:                             1.0E-06
 QS|                         eps_ppl:                                    1.0E-02
 QS|                         eps_ppnl:                                   1.0E-08


 ATOMIC KIND INFORMATION

  1. Atomic kind: O                                     Number of atoms:       4

     Orbital Basis Set                                                 TZV2P-GTH

       Number of orbital shell sets:                                           2
       Number of orbital shells:                                               8
       Number of primitive Cartesian functions:                                7
       Number of Cartesian basis functions:                                   24
       Number of spherical basis functions:                                   22
       Norm type:                                                              2

       Normalised Cartesian orbitals:

                        Set   Shell   Orbital            Exponent    Coefficient

                          1       1    2s               10.267442       0.404544
                                                         3.748050       0.199889
                                                         1.330834      -0.336302
                                                         0.455680      -0.246356
                                                         0.146292      -0.028287

                          1       2    3s               10.267442       0.000000
                                                         3.748050       0.000000
                                                         1.330834       0.000000
                                                         0.455680       0.395280
                                                         0.146292       0.000000

                          1       3    4s               10.267442       0.000000
                                                         3.748050       0.000000
                                                         1.330834       0.000000
                                                         0.455680       0.000000
                                                         0.146292       0.168588

                          1       4    3px              10.267442      -1.561025
                                                         3.748050      -1.394275
                                                         1.330834      -0.754014
                                                         0.455680      -0.224400
                                                         0.146292      -0.029841
                          1       4    3py              10.267442      -1.561025
                                                         3.748050      -1.394275
                                                         1.330834      -0.754014
                                                         0.455680      -0.224400
                                                         0.146292      -0.029841
                          1       4    3pz              10.267442      -1.561025
                                                         3.748050      -1.394275
                                                         1.330834      -0.754014
                                                         0.455680      -0.224400
                                                         0.146292      -0.029841

                          1       5    4px              10.267442       0.000000
                                                         3.748050       0.000000
                                                         1.330834       0.000000
                                                         0.455680       0.533661
                                                         0.146292       0.000000
                          1       5    4py              10.267442       0.000000
                                                         3.748050       0.000000
                                                         1.330834       0.000000
                                                         0.455680       0.533661
                                                         0.146292       0.000000
                          1       5    4pz              10.267442       0.000000
                                                         3.748050       0.000000
                                                         1.330834       0.000000
                                                         0.455680       0.533661
                                                         0.146292       0.000000

                          1       6    5px              10.267442       0.000000
                                                         3.748050       0.000000
                                                         1.330834       0.000000
                                                         0.455680       0.000000
                                                         0.146292       0.128963
                          1       6    5py              10.267442       0.000000
                                                         3.748050       0.000000
                                                         1.330834       0.000000
                                                         0.455680       0.000000
                                                         0.146292       0.128963
                          1       6    5pz              10.267442       0.000000
                                                         3.748050       0.000000
                                                         1.330834       0.000000
                                                         0.455680       0.000000
                                                         0.146292       0.128963

                          2       1    3dx2              2.314000       7.145709
                                                         0.645000       0.000000
                          2       1    3dxy              2.314000      12.376731
                                                         0.645000       0.000000
                          2       1    3dxz              2.314000      12.376731
                                                         0.645000       0.000000
                          2       1    3dy2              2.314000       7.145709
                                                         0.645000       0.000000
                          2       1    3dyz              2.314000      12.376731
                                                         0.645000       0.000000
                          2       1    3dz2              2.314000       7.145709
                                                         0.645000       0.000000

                          2       2    4dx2              2.314000       0.000000
                                                         0.645000       0.764080
                          2       2    4dxy              2.314000       0.000000
                                                         0.645000       1.323426
                          2       2    4dxz              2.314000       0.000000
                                                         0.645000       1.323426
                          2       2    4dy2              2.314000       0.000000
                                                         0.645000       0.764080
                          2       2    4dyz              2.314000       0.000000
                                                         0.645000       1.323426
                          2       2    4dz2              2.314000       0.000000
                                                         0.645000       0.764080

       Atomic covalent radius [Angstrom]:                                  0.730

       Atomic van der Waals radius [Angstrom]:                             1.520

     GTH Potential information for                                    GTH-PBE-q6

       Description:                       Goedecker-Teter-Hutter pseudopotential
                                           Goedecker et al., PRB 54, 1703 (1996)
                                          Hartwigsen et al., PRB 58, 3641 (1998)
                                                      Krack, TCA 114, 145 (2005)

       Gaussian exponent of the core charge distribution:               8.360253
       Electronic configuration (s p d ...):                               2   4

       Parameters of the local part of the GTH pseudopotential:

                          rloc        C1          C2          C3          C4
                        0.244554  -16.667215    2.487311

       Parameters of the non-local part of the GTH pseudopotential:

                   l      r(l)      h(i,j,l)

                   0    0.220956   18.337458
                   1    0.211332

  2. Atomic kind: H                                     Number of atoms:       8

     Orbital Basis Set                                                 TZV2P-GTH

       Number of orbital shell sets:                                           2
       Number of orbital shells:                                               5
       Number of primitive Cartesian functions:                                7
       Number of Cartesian basis functions:                                    9
       Number of spherical basis functions:                                    9
       Norm type:                                                              2

       Normalised Cartesian orbitals:

                        Set   Shell   Orbital            Exponent    Coefficient

                          1       1    1s               10.882724      -0.071340
                                                         3.096875      -0.104410
                                                         0.987452      -0.135375
                                                         0.345069      -0.133923
                                                         0.149269      -0.073092

                          1       2    2s               10.882724       0.000000
                                                         3.096875       0.000000
                                                         0.987452       0.000000
                                                         0.345069       0.320878
                                                         0.149269       0.000000

                          1       3    3s               10.882724       0.000000
                                                         3.096875       0.000000
                                                         0.987452       0.000000
                                                         0.345069       0.000000
                                                         0.149269       0.171154

                          2       1    2px               1.407000       2.184277
                                                         0.388000       0.000000
                          2       1    2py               1.407000       2.184277
                                                         0.388000       0.000000
                          2       1    2pz               1.407000       2.184277
                                                         0.388000       0.000000

                          2       2    3px               1.407000       0.000000
                                                         0.388000       0.436495
                          2       2    3py               1.407000       0.000000
                                                         0.388000       0.436495
                          2       2    3pz               1.407000       0.000000
                                                         0.388000       0.436495

       Atomic covalent radius [Angstrom]:                                  0.320

       Atomic van der Waals radius [Angstrom]:                             1.090

     GTH Potential information for                                    GTH-PBE-q1

       Description:                       Goedecker-Teter-Hutter pseudopotential
                                           Goedecker et al., PRB 54, 1703 (1996)
                                          Hartwigsen et al., PRB 58, 3641 (1998)
                                                      Krack, TCA 114, 145 (2005)

       Gaussian exponent of the core charge distribution:              12.500000
       Electronic configuration (s p d ...):                                   1

       Parameters of the local part of the GTH pseudopotential:

                          rloc        C1          C2          C3          C4
                        0.200000   -4.178900    0.724463


 MOLECULE KIND INFORMATION


 All atoms are their own molecule, skipping detailed information


 TOTAL NUMBERS AND MAXIMUM NUMBERS

  Total number of            - Atomic kinds:                                   2
                             - Atoms:                                         12
                             - Shell sets:                                    24
                             - Shells:                                        72
                             - Primitive Cartesian functions:                 84
                             - Cartesian basis functions:                    168
                             - Spherical basis functions:                    160

  Maximum angular momentum of- Orbital basis functions:                        2
                             - Local part of the GTH pseudopotential:          2
                             - Non-local part of the GTH pseudopotential:      0


 MODULE QUICKSTEP: ATOMIC COORDINATES IN ANGSTROM

   Atom Kind Element         X             Y             Z       Z(eff)     Mass
      1    1 O     8      6.334629     10.324141      7.668583   6.0000  15.9994
      2    2 H     1      6.148350     11.133990      8.218290   1.0000   1.0079
      3    2 H     1      5.707090     10.383021      6.911960   1.0000   1.0079
      4    1 O     8      9.135664      3.189392      0.092073   6.0000  15.9994
      5    2 H     1      9.407811      3.997638     -0.435930   1.0000   1.0079
      6    2 H     1      8.333681      2.765641     -0.322311   1.0000   1.0079
      7    1 O     8      8.185883      2.335132      8.533948   6.0000  15.9994
      8    2 H     1      8.504014      2.194143      7.585777   1.0000   1.0079
      9    2 H     1      7.259861      2.701362      8.511520   1.0000   1.0079
     10    1 O     8      5.835516      0.746145      0.614940   6.0000  15.9994
     11    2 H     1      6.826820      0.612876      0.498354   1.0000   1.0079
     12    2 H     1      5.428321      0.575554     -0.232280   1.0000   1.0079



 SCF PARAMETERS         Density guess:                                   RESTART
                        --------------------------------------------------------
                        max_scf:                                              20
                        max_scf_history:                                       0
                        max_diis:                                              4
                        --------------------------------------------------------
                        eps_scf:                                        1.00E-07
                        eps_scf_history:                                0.00E+00
                        eps_diis:                                       1.00E-01
                        eps_eigval:                                     1.00E-05
                        --------------------------------------------------------
                        level_shift [a.u.]:                             0.000000
                        --------------------------------------------------------
                        Outer loop SCF in use 
                        No variables optimised in outer loop
                        eps_scf                                         1.00E-07
                        max_scf                                               20
                        No outer loop optimization
                        step_size                                       5.00E-01

 PW_GRID| Information for grid number                                          1
 PW_GRID| Grid distributed over                                    40 processors
 PW_GRID| Real space group dimensions                                    40    1
 PW_GRID| the grid is blocked:                                                NO
 PW_GRID| Cutoff [a.u.]                                                    200.0
 PW_GRID| spherical cutoff:                                                   NO
 PW_GRID|   Bounds   1            -77      76                Points:         154
 PW_GRID|   Bounds   2            -77      76                Points:         154
 PW_GRID|   Bounds   3            -77      76                Points:         154
 PW_GRID| Volume element (a.u.^3)  0.3696E-02     Volume (a.u.^3)     13499.2065
 PW_GRID| Grid span                                                    FULLSPACE
 PW_GRID|   Distribution                         Average         Max         Min
 PW_GRID|   G-Vectors                            91306.6       91322       91168
 PW_GRID|   G-Rays                                 592.9         593         592
 PW_GRID|   Real Space Points                    91306.6       94864       71148

 PW_GRID| Information for grid number                                          2
 PW_GRID| Number of the reference grid                                         1
 PW_GRID| Grid distributed over                                    40 processors
 PW_GRID| Real space group dimensions                                    40    1
 PW_GRID| the grid is blocked:                                                NO
 PW_GRID| Cutoff [a.u.]                                                     66.7
 PW_GRID| spherical cutoff:                                                   NO
 PW_GRID|   Bounds   1            -44      43                Points:          88
 PW_GRID|   Bounds   2            -44      43                Points:          88
 PW_GRID|   Bounds   3            -44      43                Points:          88
 PW_GRID| Volume element (a.u.^3)  0.1981E-01     Volume (a.u.^3)     13499.2065
 PW_GRID| Grid span                                                    FULLSPACE
 PW_GRID|   Distribution                         Average         Max         Min
 PW_GRID|   G-Vectors                            17036.8       17160       16984
 PW_GRID|   G-Rays                                 193.6         195         193
 PW_GRID|   Real Space Points                    17036.8       23232       15488

 PW_GRID| Information for grid number                                          3
 PW_GRID| Number of the reference grid                                         1
 PW_GRID| Grid distributed over                                    40 processors
 PW_GRID| Real space group dimensions                                    40    1
 PW_GRID| the grid is blocked:                                                NO
 PW_GRID| Cutoff [a.u.]                                                     22.2
 PW_GRID| spherical cutoff:                                                   NO
 PW_GRID|   Bounds   1            -27      26                Points:          54
 PW_GRID|   Bounds   2            -27      26                Points:          54
 PW_GRID|   Bounds   3            -27      26                Points:          54
 PW_GRID| Volume element (a.u.^3)  0.8573E-01     Volume (a.u.^3)     13499.2065
 PW_GRID| Grid span                                                    FULLSPACE
 PW_GRID|   Distribution                         Average         Max         Min
 PW_GRID|   G-Vectors                             3936.6        3942        3888
 PW_GRID|   G-Rays                                  72.9          73          72
 PW_GRID|   Real Space Points                     3936.6        5832        2916

 PW_GRID| Information for grid number                                          4
 PW_GRID| Number of the reference grid                                         1
 PW_GRID| Grid distributed over                                    40 processors
 PW_GRID| Real space group dimensions                                     5    8
 PW_GRID| the grid is blocked:                                                NO
 PW_GRID| Cutoff [a.u.]                                                      7.4
 PW_GRID| spherical cutoff:                                                   NO
 PW_GRID|   Bounds   1            -15      14                Points:          30
 PW_GRID|   Bounds   2            -15      14                Points:          30
 PW_GRID|   Bounds   3            -15      14                Points:          30
 PW_GRID| Volume element (a.u.^3)  0.5000         Volume (a.u.^3)     13499.2065
 PW_GRID| Grid span                                                    FULLSPACE
 PW_GRID|   Distribution                         Average         Max         Min
 PW_GRID|   G-Vectors                              675.0         750         630
 PW_GRID|   G-Rays                                  22.5          25          21
 PW_GRID|   Real Space Points                      675.0         720         540

 PW_GRID| Information for grid number                                          5
 PW_GRID| Number of the reference grid                                         1
 PW_GRID| Grid distributed over                                    40 processors
 PW_GRID| Real space group dimensions                                     5    8
 PW_GRID| the grid is blocked:                                                NO
 PW_GRID| Cutoff [a.u.]                                                      2.5
 PW_GRID| spherical cutoff:                                                   NO
 PW_GRID|   Bounds   1             -9       8                Points:          18
 PW_GRID|   Bounds   2             -9       8                Points:          18
 PW_GRID|   Bounds   3             -9       8                Points:          18
 PW_GRID| Volume element (a.u.^3)   2.315         Volume (a.u.^3)     13499.2065
 PW_GRID| Grid span                                                    FULLSPACE
 PW_GRID|   Distribution                         Average         Max         Min
 PW_GRID|   G-Vectors                              145.8         180         126
 PW_GRID|   G-Rays                                   8.1          10           7
 PW_GRID|   Real Space Points                      145.8         216         108

 POISSON| Solver                                                        PERIODIC
 POISSON| Periodicity                                                        XYZ

 RS_GRID| Information for grid number                                          1
 RS_GRID|   Bounds   1            -77      76                Points:         154
 RS_GRID|   Bounds   2            -77      76                Points:         154
 RS_GRID|   Bounds   3            -77      76                Points:         154
 RS_GRID| Real space distribution over                                  5 groups
 RS_GRID| Real space distribution along direction                              2
 RS_GRID| Border size                                                         26
 RS_GRID| Real space distribution over                                  8 groups
 RS_GRID| Real space distribution along direction                              3
 RS_GRID| Border size                                                         26
 RS_GRID|   Distribution                         Average         Max         Min
 RS_GRID|   Planes                                  82.8          83          82
 RS_GRID|   Distribution                         Average         Max         Min
 RS_GRID|   Planes                                  71.2          72          71

 RS_GRID| Information for grid number                                          2
 RS_GRID|   Bounds   1            -44      43                Points:          88
 RS_GRID|   Bounds   2            -44      43                Points:          88
 RS_GRID|   Bounds   3            -44      43                Points:          88
 RS_GRID| Real space fully replicated
 RS_GRID| Group size                                                           1

 RS_GRID| Information for grid number                                          3
 RS_GRID|   Bounds   1            -27      26                Points:          54
 RS_GRID|   Bounds   2            -27      26                Points:          54
 RS_GRID|   Bounds   3            -27      26                Points:          54
 RS_GRID| Real space fully replicated
 RS_GRID| Group size                                                           1

 RS_GRID| Information for grid number                                          4
 RS_GRID|   Bounds   1            -15      14                Points:          30
 RS_GRID|   Bounds   2            -15      14                Points:          30
 RS_GRID|   Bounds   3            -15      14                Points:          30
 RS_GRID| Real space fully replicated
 RS_GRID| Group size                                                           1

 RS_GRID| Information for grid number                                          5
 RS_GRID|   Bounds   1             -9       8                Points:          18
 RS_GRID|   Bounds   2             -9       8                Points:          18
 RS_GRID|   Bounds   3             -9       8                Points:          18
 RS_GRID| Real space fully replicated
 RS_GRID| Group size                                                           1
 
 MD_PAR| Molecular dynamics protocol (MD input parameters)
 MD_PAR| Ensemble type                                                       NVT
 MD_PAR| Number of time steps                                                  3
 MD_PAR| Time step [fs]                                                 1.000000
 MD_PAR| Temperature [K]                                              300.000000
 MD_PAR| Temperature tolerance [K]                                      0.000000
 MD_PAR| Print MD information every                                    1 step(s)
 MD_PAR| File type   Print frequency [steps]                          File names
 MD_PAR| Coordinates          1                            H2O_restart-pos-1.xyz
 MD_PAR| Velocities           1                            H2O_restart-vel-1.xyz
 MD_PAR| Energies             1                               H2O_restart-1.ener
 MD_PAR| Dump                 1                            H2O_restart-1.restart

 ROT| Rotational analysis information
 ROT| Principal axes and moments of inertia [a.u.]
 ROT|                           1                   2                   3
 ROT| Eigenvalues      4.03638413369E+06   1.11627760569E+07   1.36137310883E+07
 ROT|      x             -0.057518139812     -0.096567820170     -0.993663081583
 ROT|      y              0.669525534781      0.734577277755     -0.110144365636
 ROT|      z              0.740558722768     -0.671618105111      0.022403102877
 ROT| Number of rotovibrational vectors                                        6

 DOF| Calculation of degrees of freedom
 DOF| Number of atoms                                                         12
 DOF| Number of intramolecular constraints                                     0
 DOF| Number of intermolecular constraints                                     0
 DOF| Invariants (translations + rotations)                                    0
 DOF| Degrees of freedom                                                      36

 DOF| Restraints information
 DOF| Number of intramolecular restraints                                      0
 DOF| Number of intermolecular restraints                                      0

 THERMOSTAT| Thermostat information for PARTICLES
 THERMOSTAT| Type of thermostat                               Nose-Hoover-Chains
 THERMOSTAT| Nose-Hoover-Chain length                                          3
 THERMOSTAT| Nose-Hoover-Chain time constant [fs]                      11.118803
 THERMOSTAT| Order of Yoshida integrator                                       3
 THERMOSTAT| Number of multiple time steps                                     2
 THERMOSTAT| Initial potential energy                        -0.349869632152E-01
 THERMOSTAT| Initial kinetic energy                           0.505338488165E-01
 THERMOSTAT| End of thermostat information for PARTICLES

 MD_VEL| Velocities initialization
 MD_VEL| Initial temperature [K]                                      352.343089
 MD_VEL| COM velocity             0.0000079285    -0.0001024431     0.0000603059

 Number of electrons:                                                         32
 Number of occupied orbitals:                                                 16
 Number of molecular orbitals:                                                16

 Number of orbital functions:                                                160
 Number of independent orbital functions:                                    160

 Extrapolation method: initial_guess

 *** WARNING in qs_initial_guess.F:305 :: User requested to restart the   ***
 *** wavefunction from the file named: H2O_restart-RESTART.wfn. This file ***
 *** does not exist. Please check the existence of the file or change     ***
 *** properly the value of the keyword WFN_RESTART_FILE_NAME. Calculation ***
 *** continues using ATOMIC GUESS.                                        ***


 Atomic guess: The first density matrix is obtained in terms of atomic orbitals
               and electronic configurations assigned to each atomic kind

 Guess for atomic kind: O

 Electronic structure
    Total number of core electrons                                          2.00
    Total number of valence electrons                                       6.00
    Total number of electrons                                               8.00
    Multiplicity                                                   not specified
    S   [  2.00] 2.00
    P      4.00
 

 *******************************************************************************
                  Iteration          Convergence                     Energy [au]
 *******************************************************************************
                          1        0.577491                     -15.568616633298
                          2        0.659429                     -15.574385699476
                          3        0.252248E-01                 -15.656217861375
                          4        0.156627E-02                 -15.656397101845
                          5        0.161710E-04                 -15.656397459300
                          6        0.346702E-06                 -15.656397459369

 Energy components [Hartree]           Total Energy ::          -15.656397459369
                                        Band Energy ::           -3.001886830830
                                     Kinetic Energy ::           11.780460877478
                                   Potential Energy ::          -27.436858336848
                                      Virial (-V/T) ::            2.329014002271
                                        Core Energy ::          -26.138300535672
                                          XC Energy ::           -3.153767183935
                                     Coulomb Energy ::           13.635670260237
                       Total Pseudopotential Energy ::          -37.953932103637
                       Local Pseudopotential Energy ::          -39.253303299159
                    Nonlocal Pseudopotential Energy ::            1.299371195522
                                        Confinement ::            0.351706904867

 Orbital energies  State     L     Occupation   Energy[a.u.]          Energy[eV]

                       1     0          2.000      -0.864888          -23.534800
 
                       1     1          4.000      -0.318028           -8.653974
 

 Total Electron Density at R=0:                                         0.000125

 Guess for atomic kind: H

 Electronic structure
    Total number of core electrons                                          0.00
    Total number of valence electrons                                       1.00
    Total number of electrons                                               1.00
    Multiplicity                                                   not specified
    S      1.00
 

 *******************************************************************************
                  Iteration          Convergence                     Energy [au]
 *******************************************************************************
                          1        0.440266E-02                  -0.423513531970
                          2        0.325828E-03                  -0.423525175186
                          3        0.252148E-04                  -0.423525335541
                          4        0.637775E-08                  -0.423525336420

 Energy components [Hartree]           Total Energy ::           -0.423525336420
                                        Band Energy ::           -0.195262559383
                                     Kinetic Energy ::            0.470173284674
                                   Potential Energy ::           -0.893698621094
                                      Virial (-V/T) ::            1.900785625696
                                        Core Energy ::           -0.479699819139
                                          XC Energy ::           -0.247097449670
                                     Coulomb Energy ::            0.303271932388
                       Total Pseudopotential Energy ::           -0.967738859557
                       Local Pseudopotential Energy ::           -0.967738859557
                    Nonlocal Pseudopotential Energy ::            0.000000000000
                                        Confinement ::            0.178657557441

 Orbital energies  State     L     Occupation   Energy[a.u.]          Energy[eV]

                       1     0          1.000      -0.195263           -5.313364
 

 Total Electron Density at R=0:                                         0.240075
 Re-scaling the density matrix to get the right number of electrons
                  # Electrons              Trace(P)               Scaling factor
                           32                32.000                        1.000


 SCF WAVEFUNCTION OPTIMIZATION

  ----------------------------------- OT ---------------------------------------
  Minimizer      : CG                  : conjugate gradient
  Preconditioner : FULL_KINETIC        : inversion of T + eS
  Precond_solver : DEFAULT
  Line search    : 2PNT                : 2 energies, one gradient
  stepsize       :    0.15000000                  energy_gap     :    0.20000000
  eps_taylor     :   0.10000E-15                  max_taylor     :             4
  ----------------------------------- OT ---------------------------------------

  Step     Update method      Time    Convergence         Total energy    Change
  ------------------------------------------------------------------------------
     1 OT CG       0.15E+00    0.6     0.06889351       -65.2463396341 -6.52E+01
     2 OT LS       0.21E+00    0.4                      -66.4207894755
     3 OT CG       0.21E+00    0.7     0.04008175       -66.5589181442 -1.31E+00
     4 OT LS       0.35E+00    0.4                      -67.1975385115
     5 OT CG       0.35E+00    0.7     0.03103906       -67.3040329962 -7.45E-01
     6 OT LS       0.31E+00    0.4                      -67.6580282596
     7 OT CG       0.31E+00    0.8     0.02397277       -67.6682061276 -3.64E-01
     8 OT LS       0.49E+00    0.4                      -67.9735719249
     9 OT CG       0.49E+00    0.7     0.02472678       -68.0173475435 -3.49E-01
    10 OT LS       0.37E+00    0.4                      -68.2641900001
    11 OT CG       0.37E+00    0.7     0.02167592       -68.2986412656 -2.81E-01
    12 OT LS       0.41E+00    0.4                      -68.5429921989
    13 OT CG       0.41E+00    0.7     0.01825757       -68.5451143687 -2.46E-01
    14 OT LS       0.38E+00    0.4                      -68.7024144793
    15 OT CG       0.38E+00    0.8     0.01460810       -68.7039864979 -1.59E-01
    16 OT LS       0.43E+00    0.4                      -68.8187131529
    17 OT CG       0.43E+00    0.7     0.01152704       -68.8202091206 -1.16E-01
    18 OT LS       0.36E+00    0.4                      -68.8796909667
    19 OT CG       0.36E+00    0.7     0.00890375       -68.8816539100 -6.14E-02
    20 OT LS       0.37E+00    0.4                      -68.9196311168

  Leaving inner SCF loop after reaching    20 steps.


  Electronic density on regular grids:        -32.0000000003       -0.0000000003
  Core density on regular grids:               32.0000000000       -0.0000000000
  Total charge density on r-space grids:       -0.0000000003
  Total charge density g-space grids:          -0.0000000003

  Overlap energy of the core charge distribution:               0.00000008938084
  Self energy of the core charge distribution:               -177.38861998695060
  Core Hamiltonian energy:                                     51.54439680991182
  Hartree energy:                                              73.85621587342305
  Exchange-correlation energy:                                -16.93051606798255
  Dispersion energy:                                           -0.00110783461513

  Total energy:                                               -68.91963111683255

  outer SCF iter =    1 RMS gradient =   0.89E-02 energy =        -68.9196311168

  ----------------------------------- OT ---------------------------------------
  Minimizer      : CG                  : conjugate gradient
  Preconditioner : FULL_KINETIC        : inversion of T + eS
  Precond_solver : DEFAULT
  Line search    : 2PNT                : 2 energies, one gradient
  stepsize       :    0.15000000                  energy_gap     :    0.20000000
  eps_taylor     :   0.10000E-15                  max_taylor     :             4
  ----------------------------------- OT ---------------------------------------

  Step     Update method      Time    Convergence         Total energy    Change
  ------------------------------------------------------------------------------
     1 OT CG       0.15E+00    1.1     0.00873162       -68.9196788965 -3.80E-02
     2 OT LS       0.29E+00    0.4                      -68.9413587086
     3 OT CG       0.29E+00    0.7     0.00640986       -68.9477802788 -2.81E-02
     4 OT LS       0.29E+00    0.4                      -68.9630128105
     5 OT CG       0.29E+00    0.7     0.00432646       -68.9630146511 -1.52E-02
     6 OT LS       0.34E+00    0.4                      -68.9709986187
     7 OT CG       0.34E+00    0.8     0.00282704       -68.9711595415 -8.14E-03
     8 OT LS       0.29E+00    0.4                      -68.9739889142
     9 OT CG       0.29E+00    0.7     0.00142925       -68.9740907104 -2.93E-03
    10 OT LS       0.27E+00    0.4                      -68.9747895581
    11 OT CG       0.27E+00    0.7     0.00087097       -68.9747926473 -7.02E-04
    12 OT LS       0.28E+00    0.4                      -68.9750657060
    13 OT CG       0.28E+00    0.7     0.00053109       -68.9750663241 -2.74E-04
    14 OT LS       0.29E+00    0.4                      -68.9751721409
    15 OT CG       0.29E+00    0.7     0.00027932       -68.9751723057 -1.06E-04
    16 OT LS       0.31E+00    0.4                      -68.9752028651
    17 OT CG       0.31E+00    0.7     0.00016796       -68.9752029210 -3.06E-05
    18 OT LS       0.28E+00    0.4                      -68.9752128226
    19 OT CG       0.28E+00    0.7     0.00010070       -68.9752129342 -1.00E-05
    20 OT LS       0.30E+00    0.4                      -68.9752167743

  Leaving inner SCF loop after reaching    20 steps.


  Electronic density on regular grids:        -32.0000000004       -0.0000000004
  Core density on regular grids:               32.0000000000       -0.0000000000
  Total charge density on r-space grids:       -0.0000000004
  Total charge density g-space grids:          -0.0000000004

  Overlap energy of the core charge distribution:               0.00000008938084
  Self energy of the core charge distribution:               -177.38861998695060
  Core Hamiltonian energy:                                     51.45287725045272
  Hartree energy:                                              73.89357466014201
  Exchange-correlation energy:                                -16.93194095275210
  Dispersion energy:                                           -0.00110783461513

  Total energy:                                               -68.97521677434226

  outer SCF iter =    2 RMS gradient =   0.10E-03 energy =        -68.9752167743

  ----------------------------------- OT ---------------------------------------
  Minimizer      : CG                  : conjugate gradient
  Preconditioner : FULL_KINETIC        : inversion of T + eS
  Precond_solver : DEFAULT
  Line search    : 2PNT                : 2 energies, one gradient
  stepsize       :    0.15000000                  energy_gap     :    0.20000000
  eps_taylor     :   0.10000E-15                  max_taylor     :             4
  ----------------------------------- OT ---------------------------------------

  Step     Update method      Time    Convergence         Total energy    Change
  ------------------------------------------------------------------------------
     1 OT CG       0.15E+00    1.0     0.00005679       -68.9752167916 -3.86E-06
     2 OT LS       0.22E+00    0.3                      -68.9752176076
     3 OT CG       0.22E+00    0.7     0.00003484       -68.9752176993 -9.08E-07
     4 OT LS       0.35E+00    0.3                      -68.9752181682
     5 OT CG       0.35E+00    0.7     0.00002572       -68.9752182437 -5.44E-07
     6 OT LS       0.30E+00    0.3                      -68.9752184940
     7 OT CG       0.30E+00    0.8     0.00001656       -68.9752185003 -2.57E-07
     8 OT LS       0.32E+00    0.4                      -68.9752186119
     9 OT CG       0.32E+00    0.7     0.00000963       -68.9752186121 -1.12E-07
    10 OT LS       0.27E+00    0.3                      -68.9752186433
    11 OT CG       0.27E+00    0.7     0.00000606       -68.9752186443 -3.22E-08
    12 OT LS       0.27E+00    0.3                      -68.9752186570
    13 OT CG       0.27E+00    0.7     0.00000327       -68.9752186570 -1.27E-08
    14 OT LS       0.32E+00    0.3                      -68.9752186613
    15 OT CG       0.32E+00    0.7     0.00000186       -68.9752186614 -4.36E-09
    16 OT LS       0.28E+00    0.3                      -68.9752186626
    17 OT CG       0.28E+00    0.7     0.00000103       -68.9752186626 -1.23E-09
    18 OT LS       0.28E+00    0.3                      -68.9752186630
    19 OT CG       0.28E+00    0.7     0.00000062       -68.9752186630 -3.86E-10
    20 OT LS       0.27E+00    0.3                      -68.9752186631

  Leaving inner SCF loop after reaching    20 steps.


  Electronic density on regular grids:        -32.0000000004       -0.0000000004
  Core density on regular grids:               32.0000000000       -0.0000000000
  Total charge density on r-space grids:       -0.0000000004
  Total charge density g-space grids:          -0.0000000004

  Overlap energy of the core charge distribution:               0.00000008938084
  Self energy of the core charge distribution:               -177.38861998695060
  Core Hamiltonian energy:                                     51.45433942267139
  Hartree energy:                                              73.89232122628896
  Exchange-correlation energy:                                -16.93215157990696
  Dispersion energy:                                           -0.00110783461513

  Total energy:                                               -68.97521866313150

  outer SCF iter =    3 RMS gradient =   0.62E-06 energy =        -68.9752186631

  ----------------------------------- OT ---------------------------------------
  Minimizer      : CG                  : conjugate gradient
  Preconditioner : FULL_KINETIC        : inversion of T + eS
  Precond_solver : DEFAULT
  Line search    : 2PNT                : 2 energies, one gradient
  stepsize       :    0.15000000                  energy_gap     :    0.20000000
  eps_taylor     :   0.10000E-15                  max_taylor     :             4
  ----------------------------------- OT ---------------------------------------

  Step     Update method      Time    Convergence         Total energy    Change
  ------------------------------------------------------------------------------
     1 OT CG       0.15E+00    1.0     0.00000037       -68.9752186631 -1.32E-10
     2 OT LS       0.26E+00    0.3                      -68.9752186632
     3 OT CG       0.26E+00    0.7     0.00000026       -68.9752186632 -4.50E-11
     4 OT LS       0.34E+00    0.3                      -68.9752186632
     5 OT CG       0.34E+00    0.7     0.00000018       -68.9752186632 -2.83E-11
     6 OT LS       0.31E+00    0.3                      -68.9752186632
     7 OT CG       0.31E+00    0.7     0.00000012       -68.9752186632 -1.31E-11
     8 OT LS       0.30E+00    0.3                      -68.9752186632
     9 OT CG       0.30E+00    0.7     0.00000007       -68.9752186632 -5.34E-12

  *** SCF run converged in     9 steps ***


  Electronic density on regular grids:        -32.0000000004       -0.0000000004
  Core density on regular grids:               32.0000000000       -0.0000000000
  Total charge density on r-space grids:       -0.0000000004
  Total charge density g-space grids:          -0.0000000004

  Overlap energy of the core charge distribution:               0.00000008938084
  Self energy of the core charge distribution:               -177.38861998695060
  Core Hamiltonian energy:                                     51.45433451243528
  Hartree energy:                                              73.89232498852058
  Exchange-correlation energy:                                -16.93215043199453
  Dispersion energy:                                           -0.00110783461513

  Total energy:                                               -68.97521866322354

  outer SCF iter =    4 RMS gradient =   0.65E-07 energy =        -68.9752186632
  outer SCF loop converged in   4 iterations or   69 steps


 !-----------------------------------------------------------------------------!
                           Hirshfeld Charges

  #Atom  Element  Kind  Ref Charge     Population                    Net charge
      1       O      1       6.000          7.122                        -1.122
      2       H      2       1.000          0.438                         0.562
      3       H      2       1.000          0.439                         0.561
      4       O      1       6.000          7.133                        -1.133
      5       H      2       1.000          0.432                         0.568
      6       H      2       1.000          0.434                         0.566
      7       O      1       6.000          7.134                        -1.134
      8       H      2       1.000          0.430                         0.570
      9       H      2       1.000          0.435                         0.565
     10       O      1       6.000          7.119                        -1.119
     11       H      2       1.000          0.433                         0.567
     12       H      2       1.000          0.444                         0.556

  Total Charge                                                            0.007
 !-----------------------------------------------------------------------------!

 ENERGY| Total FORCE_EVAL ( QS ) energy [a.u.]:              -68.975218663225021

 ATOMIC FORCES in [a.u.]

 # Atom   Kind   Element          X              Y              Z
      1      1      O          -0.01133483     0.01674381     0.00385291
      2      2      H           0.00304860    -0.01848994    -0.01504189
      3      2      H           0.00803242     0.00136135     0.01163961
      4      1      O          -0.00290545     0.00740736    -0.01468146
      5      2      H          -0.01611308    -0.02744555     0.00948195
      6      2      H           0.02123449     0.01946519     0.00312189
      7      1      O          -0.00602203     0.00157711    -0.02195563
      8      2      H          -0.01844729     0.00790584     0.03064803
      9      2      H           0.02377751    -0.00871402    -0.00902415
     10      1      O           0.03390417     0.00099927     0.01344319
     11      2      H          -0.03300157     0.00228574    -0.00025058
     12      2      H          -0.00083814    -0.00377846    -0.01341146
 SUM OF ATOMIC FORCES           0.00133482    -0.00068230    -0.00217760     0.00264371

 STRESS| Analytical stress tensor [GPa]
 STRESS|                        x                   y                   z
 STRESS|      x       -3.72808936288E-01  -2.59880244403E-02   7.83856959473E-02
 STRESS|      y       -2.59880244403E-02  -2.07948111672E-01  -4.05490610505E-02
 STRESS|      z        7.83856959473E-02  -4.05490610505E-02  -1.80988446458E-01
 STRESS| 1/3 Trace                                            -2.53915164806E-01
 STRESS| Determinant                                          -1.18529927079E-02

 STRESS| Eigenvectors and eigenvalues of the analytical stress tensor [GPa]
 STRESS|                        1                   2                   3
 STRESS| Eigenvalues  -4.01404381084E-01  -2.34324245061E-01  -1.26016868273E-01
 STRESS|      x           0.943929337206      0.114546077334      0.309639471854
 STRESS|      y           0.058705927528      0.864700355215     -0.498845577071
 STRESS|      z          -0.324886165349      0.489052647327      0.809491499465

 MD_INI| MD initialization
 MD_INI| Potential energy [hartree]                          -0.689752186632E+02
 MD_INI| Kinetic energy [hartree]                             0.210167732360E-01
 MD_INI| Temperature [K]                                              368.698009
 MD_INI| Pressure [bar]                                      -2.233783224855E+03
 MD_INI| Cell volume [bohr^3]                                 1.349920653998E+04
 MD_INI| Cell volume [ang^3]                                  2.000376000000E+03
 MD_INI| Cell lengths [bohr]      2.38105493E+01  2.38105493E+01  2.38105493E+01
 MD_INI| Cell lengths [ang]       1.26000000E+01  1.26000000E+01  1.26000000E+01
 MD_INI| Cell angles [deg]        9.00000000E+01  9.00000000E+01  9.00000000E+01

 Number of electrons:                                                         32
 Number of occupied orbitals:                                                 16
 Number of molecular orbitals:                                                16

 Number of orbital functions:                                                160
 Number of independent orbital functions:                                    160

 Parameters for the always stable predictor-corrector (ASPC) method:

  ASPC order: 0

  B(1) =   1.000000

 Extrapolation method: ASPC


 SCF WAVEFUNCTION OPTIMIZATION

  ----------------------------------- OT ---------------------------------------
  Minimizer      : CG                  : conjugate gradient
  Preconditioner : FULL_KINETIC        : inversion of T + eS
  Precond_solver : DEFAULT
  Line search    : 2PNT                : 2 energies, one gradient
  stepsize       :    0.15000000                  energy_gap     :    0.20000000
  eps_taylor     :   0.10000E-15                  max_taylor     :             4
  ----------------------------------- OT ---------------------------------------

  Step     Update method      Time    Convergence         Total energy    Change
  ------------------------------------------------------------------------------
     1 OT CG       0.15E+00    0.5     0.00196551       -68.9758404461 -6.90E+01
     2 OT LS       0.29E+00    0.4                      -68.9769437492
     3 OT CG       0.29E+00    0.7     0.00110601       -68.9772895410 -1.45E-03
     4 OT LS       0.21E+00    0.4                      -68.9775791861
     5 OT CG       0.21E+00    0.7     0.00055427       -68.9776251275 -3.36E-04
     6 OT LS       0.30E+00    0.4                      -68.9777336645
     7 OT CG       0.30E+00    0.7     0.00037552       -68.9777437684 -1.19E-04
     8 OT LS       0.30E+00    0.4                      -68.9777975649
     9 OT CG       0.30E+00    0.8     0.00020086       -68.9777975727 -5.38E-05
    10 OT LS       0.30E+00    0.4                      -68.9778130202
    11 OT CG       0.30E+00    0.7     0.00012048       -68.9778130204 -1.54E-05
    12 OT LS       0.31E+00    0.4                      -68.9778187293
    13 OT CG       0.31E+00    0.7     0.00007951       -68.9778187335 -5.71E-06
    14 OT LS       0.24E+00    0.3                      -68.9778205130
    15 OT CG       0.24E+00    0.7     0.00003900       -68.9778206701 -1.94E-06
    16 OT LS       0.32E+00    0.3                      -68.9778212527
    17 OT CG       0.32E+00    0.7     0.00002071       -68.9778212918 -6.22E-07
    18 OT LS       0.25E+00    0.3                      -68.9778214189
    19 OT CG       0.25E+00    0.7     0.00001282       -68.9778214293 -1.38E-07
    20 OT LS       0.30E+00    0.3                      -68.9778214913

  Leaving inner SCF loop after reaching    20 steps.


  Electronic density on regular grids:        -32.0000000001       -0.0000000001
  Core density on regular grids:               32.0000000000       -0.0000000000
  Total charge density on r-space grids:       -0.0000000001
  Total charge density g-space grids:          -0.0000000001

  Overlap energy of the core charge distribution:               0.00000022365214
  Self energy of the core charge distribution:               -177.38861998695060
  Core Hamiltonian energy:                                     51.73529259130199
  Hartree energy:                                              73.69054286797359
  Exchange-correlation energy:                                -17.01393706068429
  Dispersion energy:                                           -0.00110012654794

  Total energy:                                               -68.97782149125511

  outer SCF iter =    1 RMS gradient =   0.13E-04 energy =        -68.9778214913

  ----------------------------------- OT ---------------------------------------
  Minimizer      : CG                  : conjugate gradient
  Preconditioner : FULL_KINETIC        : inversion of T + eS
  Precond_solver : DEFAULT
  Line search    : 2PNT                : 2 energies, one gradient
  stepsize       :    0.15000000                  energy_gap     :    0.20000000
  eps_taylor     :   0.10000E-15                  max_taylor     :             4
  ----------------------------------- OT ---------------------------------------

  Step     Update method      Time    Convergence         Total energy    Change
  ------------------------------------------------------------------------------
     1 OT CG       0.15E+00    1.1     0.00000697       -68.9778214932 -6.40E-08
     2 OT LS       0.24E+00    0.3                      -68.9778215061
     3 OT CG       0.24E+00    0.7     0.00000461       -68.9778215084 -1.51E-08
     4 OT LS       0.30E+00    0.3                      -68.9778215163
     5 OT CG       0.30E+00    0.7     0.00000315       -68.9778215166 -8.26E-09
     6 OT LS       0.31E+00    0.3                      -68.9778215205
     7 OT CG       0.31E+00    0.7     0.00000190       -68.9778215205 -3.89E-09
     8 OT LS       0.32E+00    0.3                      -68.9778215220
     9 OT CG       0.32E+00    0.7     0.00000118       -68.9778215220 -1.46E-09
    10 OT LS       0.26E+00    0.3                      -68.9778215224
    11 OT CG       0.26E+00    0.7     0.00000065       -68.9778215224 -4.65E-10
    12 OT LS       0.27E+00    0.3                      -68.9778215226
    13 OT CG       0.27E+00    0.7     0.00000038       -68.9778215226 -1.46E-10
    14 OT LS       0.34E+00    0.3                      -68.9778215226
    15 OT CG       0.34E+00    0.7     0.00000023       -68.9778215226 -6.28E-11
    16 OT LS       0.28E+00    0.3                      -68.9778215227
    17 OT CG       0.28E+00    0.7     0.00000014       -68.9778215227 -1.87E-11
    18 OT LS       0.28E+00    0.3                      -68.9778215227
    19 OT CG       0.28E+00    0.7     0.00000009       -68.9778215227 -7.33E-12

  *** SCF run converged in    19 steps ***


  Electronic density on regular grids:        -32.0000000001       -0.0000000001
  Core density on regular grids:               32.0000000000       -0.0000000000
  Total charge density on r-space grids:       -0.0000000001
  Total charge density g-space grids:          -0.0000000001

  Overlap energy of the core charge distribution:               0.00000022365214
  Self energy of the core charge distribution:               -177.38861998695060
  Core Hamiltonian energy:                                     51.73552033218938
  Hartree energy:                                              73.69033116949782
  Exchange-correlation energy:                                -17.01395313450343
  Dispersion energy:                                           -0.00110012654794

  Total energy:                                               -68.97782152266264

  outer SCF iter =    2 RMS gradient =   0.91E-07 energy =        -68.9778215227
  outer SCF loop converged in   2 iterations or   39 steps


 !-----------------------------------------------------------------------------!
                           Hirshfeld Charges

  #Atom  Element  Kind  Ref Charge     Population                    Net charge
      1       O      1       6.000          7.116                        -1.116
      2       H      2       1.000          0.438                         0.562
      3       H      2       1.000          0.444                         0.556
      4       O      1       6.000          7.130                        -1.130
      5       H      2       1.000          0.434                         0.566
      6       H      2       1.000          0.436                         0.564
      7       O      1       6.000          7.127                        -1.127
      8       H      2       1.000          0.436                         0.564
      9       H      2       1.000          0.437                         0.563
     10       O      1       6.000          7.110                        -1.110
     11       H      2       1.000          0.437                         0.563
     12       H      2       1.000          0.450                         0.550

  Total Charge                                                            0.007
 !-----------------------------------------------------------------------------!

 ENERGY| Total FORCE_EVAL ( QS ) energy [a.u.]:              -68.977821522665380

 ATOMIC FORCES in [a.u.]

 # Atom   Kind   Element          X              Y              Z
      1      1      O           0.01021213     0.00824502     0.02581737
      2      2      H           0.00115830    -0.01322662    -0.01210336
      3      2      H          -0.01236409     0.00394381    -0.01304234
      4      1      O           0.00050782    -0.00220054     0.00018275
      5      2      H          -0.01250061    -0.01430641    -0.00006149
      6      2      H           0.01323522     0.01617740    -0.00198293
      7      1      O          -0.00520649     0.00097047     0.00710128
      8      2      H          -0.00871579     0.00354902     0.00153602
      9      2      H           0.01318595    -0.00438549    -0.00890082
     10      1      O           0.02955453     0.00812320     0.03988253
     11      2      H          -0.01496412    -0.00017396    -0.00096363
     12      2      H          -0.01479800    -0.00814342    -0.04011530
 SUM OF ATOMIC FORCES          -0.00069516    -0.00142752    -0.00264993     0.00308921

 STRESS| Analytical stress tensor [GPa]
 STRESS|                        x                   y                   z
 STRESS|      x       -1.37968307880E-01  -3.52286227709E-02   1.41855171513E-01
 STRESS|      y       -3.52286227709E-02  -1.26022471579E-01  -2.63984153636E-02
 STRESS|      z        1.41855171513E-01  -2.63984153636E-02   1.35483213473E-01
 STRESS| 1/3 Trace                                            -4.28358553289E-02
 STRESS| Determinant                                           5.08344694928E-03

 STRESS| Eigenvectors and eigenvalues of the analytical stress tensor [GPa]
 STRESS|                        1                   2                   3
 STRESS| Eigenvalues  -2.04761366073E-01  -1.23983747614E-01   2.00237547700E-01
 STRESS|      x           0.893088703811     -0.216348438366      0.394443811389
 STRESS|      y           0.282079699932      0.952310359042     -0.116344415200
 STRESS|      z          -0.350461995104      0.215170474923      0.911525126757

 MD_VEL| Centre of mass motion (COM)
 MD_VEL| VCOM [a.u.]              0.0000127497    -0.0001068056     0.0000685297

 MD| ***************************************************************************
 MD| Step number                                                              20
 MD| Time [fs]                                                         20.000000
 MD| Conserved quantity [hartree]                            -0.689389977729E+02
 MD| ---------------------------------------------------------------------------
 MD|                                          Instantaneous             Averages
 MD| CPU time per MD step [s]                     60.277769            25.127609
 MD| Energy drift per atom [K]          -0.128325577490E+02  -0.586722355594E+01
 MD| Potential energy [hartree]         -0.689778215227E+02  -0.689762249090E+02
 MD| Kinetic energy [hartree]            0.235487439071E-01   0.160601246057E-01
 MD| Temperature [K]                             413.116462           281.743344
 MD| Pressure [bar]                     -8.620123377007E+01  -2.816868367575E+02
 MD| ***************************************************************************
 MD| Estimated peak process memory after this step [MiB]                     437

 Number of electrons:                                                         32
[...]
 flops    16 x    16 x     9             15888384       0.0%    100.0%      0.0%
 flops     9 x     9 x    16             16982784       0.0%    100.0%      0.0%
 flops    75 x    16 x     9             17107200       0.0%    100.0%      0.0%
 flops     9 x    22 x    16             18450432       0.0%    100.0%      0.0%
 flops    22 x     9 x    16             18450432       0.0%    100.0%      0.0%
 flops    16 x    16 x    22             19419136       0.0%    100.0%      0.0%
 flops    75 x    16 x    22             20908800       0.0%    100.0%      0.0%
 flops    75 x    16 x    16             23232000       0.0%    100.0%      0.0%
 flops    22 x    22 x    16             28188160       0.0%    100.0%      0.0%
 flops     9 x    16 x     9             48439296       0.0%    100.0%      0.0%
 flops     9 x    16 x    22             59203584       0.0%    100.0%      0.0%
 flops    22 x    16 x     9             59203584       0.0%    100.0%      0.0%
 flops    22 x    16 x    22             72359936       0.0%    100.0%      0.0%
 flops inhomo. stacks                           0       0.0%      0.0%      0.0%
 flops total                       491.680000E+06       0.0%    100.0%      0.0%
 flops max/rank                    225.543808E+06       0.0%    100.0%      0.0%
 matmuls inhomo. stacks                         0       0.0%      0.0%      0.0%
 matmuls total                              67336       0.0%    100.0%      0.0%
 number of processed stacks                 34618       0.0%    100.0%      0.0%
 average stack size                                     0.0       1.9       0.0
 marketing flops                   559.523776E+06
 -------------------------------------------------------------------------------
 # multiplications                           2160
 max memory usage/rank             458.969088E+06
 # max total images/rank                        5
 # max 3D layers                                1
 # MPI messages exchanged                 2851200
 MPI messages size (bytes):
  total size                         1.023891E+09
  min size                           0.000000E+00
  max size                          13.200000E+03
  average size                     359.108948E+00
 MPI breakdown and total messages size (bytes):
             size <=      128             2614452                        0
       128 < size <=     8192              215589                770091456
      8192 < size <=    32768               21159                253800000
     32768 < size <=   131072                   0                        0
    131072 < size <=  4194304                   0                        0
   4194304 < size <= 16777216                   0                        0
  16777216 < size                               0                        0
 -------------------------------------------------------------------------------

 *** WARNING in dbcsr_mm.F:291 :: Using a non-square number of MPI ranks ***
 *** might lead to poor performance. Used ranks: 40 Suggested: 36 81     ***

 -------------------------------------------------------------------------------
 -                                                                             -
 -                      DBCSR MESSAGE PASSING PERFORMANCE                      -
 -                                                                             -
 -------------------------------------------------------------------------------
 ROUTINE             CALLS      AVE VOLUME [Bytes]
 MP_Bcast               21                     12.
 MP_Allreduce        10988                      8.
 MP_Alltoall          7378                   3812.
 MP_ISend           153334                    567.
 MP_IRecv           152526                    404.
 -------------------------------------------------------------------------------

 -------------------------------------------------------------------------------
 -                                                                             -
 -                                DBM STATISTICS                               -
 -                                                                             -
 -------------------------------------------------------------------------------
    M  x    N  x    K                                          COUNT     PERCENT
 -------------------------------------------------------------------------------

 -------------------------------------------------------------------------------
 -                                                                             -
 -                                GRID STATISTICS                              -
 -                                                                             -
 -------------------------------------------------------------------------------
 LP    KERNEL             BACKEND                              COUNT     PERCENT
 1     collocate ortho    CPU                                 159564      26.11%
 2     collocate ortho    CPU                                 103952      17.01%
 0     collocate ortho    CPU                                  96964      15.87%
 1     integrate ortho    CPU                                  79782      13.05%
 2     integrate ortho    CPU                                  51976       8.50%
 0     integrate ortho    CPU                                  48482       7.93%
 3     collocate ortho    CPU                                  32146       5.26%
 3     integrate ortho    CPU                                  18255       2.99%
 4     integrate ortho    CPU                                   5454       0.89%
 0     collocate general  CPU                                   3840       0.63%
 4     collocate ortho    CPU                                   3738       0.61%
 5     integrate ortho    CPU                                   2339       0.38%
 0     integrate general  CPU                                   1920       0.31%
 3     integrate general  CPU                                   1920       0.31%
 6     integrate ortho    CPU                                    724       0.12%
 7     integrate ortho    CPU                                     84       0.01%
 -------------------------------------------------------------------------------

 MEMORY| Estimated peak process memory [MiB]                                 438

 -------------------------------------------------------------------------------
 ----                             MULTIGRID INFO                            ----
 -------------------------------------------------------------------------------
 count for grid        1:         374179          cutoff [a.u.]          200.00
 count for grid        2:         140660          cutoff [a.u.]           66.67
 count for grid        3:          64680          cutoff [a.u.]           22.22
 count for grid        4:           1800          cutoff [a.u.]            7.41
 count for grid        5:              0          cutoff [a.u.]            2.47
 total gridlevel count  :         581319

 -------------------------------------------------------------------------------
 -                                                                             -
 -                         MESSAGE PASSING PERFORMANCE                         -
 -                                                                             -
 -------------------------------------------------------------------------------

 ROUTINE             CALLS      AVE VOLUME [Bytes]
 MP_Group                5
 MP_Bcast             2592                 230310.
 MP_Allreduce         4630                    146.
 MP_Sync                41
 MP_Alltoall          3411                2653374.
 MP_SendRecv         28392                  58683.
 MP_ISendRecv        14508                  60000.
 MP_Wait             28858
 MP_comm_split          36
 MP_ISend            13202                 157302.
 MP_IRecv            13202                 156858.
 -------------------------------------------------------------------------------


 -------------------------------------------------------------------------------
 -                                                                             -
 -                           R E F E R E N C E S                               -
 -                                                                             -
 -------------------------------------------------------------------------------
 
 CP2K version 2023.2, the CP2K developers group (2023).
 CP2K is freely available from https://www.cp2k.org/ .

 Kuehne,Thomas D.; Iannuzzi,Marcella; Del Ben,Mauro;
 Rybkin,Vladimir V.; Seewald,Patrick; Stein,Frederick; Laino,Teodoro;
 Khaliullin,Rustam Z.; Schuett,Ole; Schiffmann,Florian; Golze,Dorothea;
 Wilhelm,Jan; Chulkov,Sergey; Bani-Hashemian,Mohammad Hossein;
 Weber,Valery; Borstnik,Urban; Taillefumier,Mathieu;
 Jakobovits,Alice Shoshana; Lazzaro,Alfio; Pabst,Hans; Mueller,Tiziano;
 Schade,Robert; Guidon,Manuel; Andermatt,Samuel; Holmberg,Nico;
 Schenter,Gregory K.; Hehn,Anna; Bussy,Augustin; Belleflamme,Fabian;
 Tabacchi,Gloria; Gloess,Andreas; Lass,Michael; Bethune,Iain;
 Mundy,Christopher J.; Plessl,Christian; Watkins,Matt;
 VandeVondele,Joost; Krack,Matthias; Hutter,Juerg. 
 The Journal of Chemical Physics, 152 (19), (2020). 
 CP2K: An electronic structure and molecular dynamics software package -
 Quickstep: Efficient and accurate electronic structure calculations.
 https://doi.org/10.1063/5.0007045

 Goerigk, Lars; Hansen, Andreas; Bauer, Christoph; Ehrlich, Stephan;
 Najibi, Asim; Grimme, Stefan. , 19 (48), (2017). 
 A look at the density functional theory zoo with the advanced GMTKN55 database
 for general main group thermochemistry, kinetics and noncovalent interactions.
 https://doi.org/10.1039/C7CP04913G

 Schuett, Ole; Messmer, Peter; Hutter, Juerg; VandeVondele, Joost. 
 Electronic Structure Calculations on Graphics Processing Units, John
 Wiley & Sons, Ltd, 173-190 (2016). 
 GPU-Accelerated Sparse Matrix-Matrix Multiplication for
 Linear Scaling Density Functional Theory.
 https://doi.org/10.1002/9781118670712.ch8

 Heinecke, A; Henry, G; Hutchinson, M; Pabst, H. 
 Proceedings of Intl. Supercomputing Conference, 981-991 (2016). 
 LIBXSMM: Accelerating Small Matrix Multiplications
 by Runtime Code Generation.
 https://doi.org/10.1109/SC.2016.83

 Borstnik, U; VandeVondele, J; Weber, V; Hutter, J. 
 PARALLEL COMPUTING, 40 (5-6), 47-58 (2014). 
 Sparse matrix multiplication: The distributed block-compressed sparse
 row library.
 https://doi.org/10.1016/j.parco.2014.03.012

 Hutter, J; Iannuzzi, M; Schiffmann, F; VandeVondele, J. 
 WIREs Comput Mol Sci., 4 (1), 15-25 (2014). 
 CP2K: atomistic simulations of condensed matter systems.
 https://doi.org/10.1002/wcms.1159

 Marek, A; Blum, V; Johanni, R; Havu, V; Lang, B; Auckenthaler, T;
 Heinecke, A; Bungartz, H; Lederer, H. 
 Journal of Physics: Condensed Matter, 26 (21), (2014). 
 The ELPA library: scalable parallel eigenvalue solutions for
 electronic structure
 theory and computational science.
 https://doi.org/10.1088/0953-8984/26/21/213201

 Grimme, S; Ehrlich, S; Goerigk, L. 
 JOURNAL OF COMPUTATIONAL CHEMISTRY, 32, 1456 (2011). 
 Effect of the damping function in dispersion corrected density functional theory.
 https://doi.org/10.1002/jcc.21759

 Grimme, S; Antony, J; Ehrlich, S; Krieg, H. 
 JOURNAL OF CHEMICAL PHYSICS, 132 (15), 154104 (2010). 
 A consistent and accurate ab initio parametrization of density
 functional dispersion correction (DFT-D) for the 94 elements H-Pu.
 https://doi.org/10.1063/1.3382344

 VandeVondele, J; Hutter, J. 
 JOURNAL OF CHEMICAL PHYSICS, 127 (11), 114105 (2007). 
 Gaussian basis sets for accurate calculations on molecular systems in
 gas and condensed phases.
 https://doi.org/10.1063/1.2770708

 Kuhne, TD; Krack, M; Mohamed, FR; Parrinello, M. 
 PHYSICAL REVIEW LETTERS, 98 (6), 066401 (2007). 
 Efficient and accurate Car-Parrinello-like approach to
 Born-Oppenheimer molecular dynamics.
 https://doi.org/10.1103/PhysRevLett.98.066401

 Krack, M. 
 THEORETICAL CHEMISTRY ACCOUNTS, 114 (1-3), 145-152 (2005). 
 Pseudopotentials for H to Kr optimized for gradient-corrected
 exchange-correlation functionals.
 https://doi.org/10.1007/s00214-005-0655-y

 VandeVondele, J; Krack, M; Mohamed, F; Parrinello, M; Chassaing, T;
 Hutter, J. COMPUTER PHYSICS COMMUNICATIONS, 167 (2), 103-128 (2005). 
 QUICKSTEP: Fast and accurate density functional calculations using a
 mixed Gaussian and plane waves approach.
 https://doi.org/10.1016/j.cpc.2004.12.014

 Frigo, M; Johnson, SG. 
 PROCEEDINGS OF THE IEEE, 93 (2), 216-231 (2005). 
 The design and implementation of FFTW3.
 https://doi.org/10.1109/JPROC.2004.840301

 Kolafa, J. 
 JOURNAL OF COMPUTATIONAL CHEMISTRY, 25 (3), 335-342 (2004). 
 Time-reversible always stable predictor-corrector method for
 molecular dynamics of polarizable molecules.
 https://doi.org/10.1002/jcc.10385

 VandeVondele, J; Hutter, J. 
 JOURNAL OF CHEMICAL PHYSICS, 118 (10), 4365-4369 (2003). 
 An efficient orbital transformation method for electronic structure
 calculations.
 https://doi.org/10.1063/1.1543154

 Hartwigsen, C; Goedecker, S; Hutter, J. 
 PHYSICAL REVIEW B, 58 (7), 3641-3662 (1998). 
 Relativistic separable dual-space Gaussian pseudopotentials from H to Rn.
 https://doi.org/10.1103/PhysRevB.58.3641

 Zhang, YK; Yang, WT. 
 PHYSICAL REVIEW LETTERS, 80 (4), 890-890 (1998). 
 Comment on Generalized gradient approximation made simple.
 https://doi.org/10.1103/PhysRevLett.80.890

 Lippert, G; Hutter, J; Parrinello, M. 
 MOLECULAR PHYSICS, 92 (3), 477-487 (1997). 
 A hybrid Gaussian and plane wave density functional scheme.
 https://doi.org/10.1080/002689797170220

 Perdew, JP; Burke, K; Ernzerhof, M. 
 PHYSICAL REVIEW LETTERS, 77 (18), 3865-3868 (1996). 
 Generalized gradient approximation made simple.
 https://doi.org/10.1103/PhysRevLett.77.3865

 Goedecker, S; Teter, M; Hutter, J. 
 PHYSICAL REVIEW B, 54 (3), 1703-1710 (1996). 
 Separable dual-space Gaussian pseudopotentials.
 https://doi.org/10.1103/PhysRevB.54.1703

 NOSE, S. JOURNAL OF CHEMICAL PHYSICS, 81 (1), 511-519 (1984). 
 A UNIFIED FORMULATION OF THE CONSTANT TEMPERATURE MOLECULAR-DYNAMICS
 METHODS.
 https://doi.org/10.1063/1.447334

 NOSE, S. MOLECULAR PHYSICS, 52 (2), 255-268 (1984). 
 A MOLECULAR-DYNAMICS METHOD FOR SIMULATIONS IN THE CANONICAL ENSEMBLE.
 https://doi.org/10.1080/00268978400101201


 -------------------------------------------------------------------------------
 -                                                                             -
 -                                T I M I N G                                  -
 -                                                                             -
 -------------------------------------------------------------------------------
 SUBROUTINE                       CALLS  ASD         SELF TIME        TOTAL TIME
                                MAXIMUM       AVERAGE  MAXIMUM  AVERAGE  MAXIMUM
 CP2K                                 1  1.0    0.017    0.022   98.048   98.056
 qs_mol_dyn_low                       1  2.0    0.006    0.008   97.762   97.766
 qs_forces                            4  3.8    0.002    0.003   97.724   97.724
 qs_energies                          4  4.8    0.001    0.004   95.097   95.099
 scf_env_do_scf                       4  5.8    0.001    0.001   93.103   93.103
 scf_env_do_scf_inner_loop          174  6.6    0.004    0.014   87.991   87.993
 rebuild_ks_matrix                  178  8.5    0.001    0.003   60.410   60.440
 qs_ks_build_kohn_sham_matrix       178  9.5    0.037    0.055   60.409   60.439
 velocity_verlet                      3  3.0    0.001    0.001   59.416   59.417
 qs_ks_update_qs_env                184  7.6    0.001    0.002   57.816   57.843
 pw_transfer                       2892 12.4    0.383    0.514   43.742   47.911
 fft_wrap_pw1pw2                   2536 13.5    0.041    0.054   42.631   47.126
 fft_wrap_pw1pw2_200               1452 15.2    3.892    4.646   40.906   44.525
 fft3d_ps                          2536 15.5   16.992   18.209   31.858   40.240
 qs_vxc_create                      178 10.5    0.012    0.021   38.856   39.448
 qs_rho_update_rho_low              178  7.6    0.001    0.002   31.590   31.595
 calculate_rho_elec                 178  8.6    0.106    0.155   31.589   31.594
 xc_pw_derive                       813 13.5    0.033    0.043   29.237   31.064
 rs_pw_transfer                    1371 11.6    0.026    0.033   25.643   28.185
 density_rs2pw                      178  9.6    0.027    0.034   25.349   27.653
 xc_vxc_pw_create                    93 11.5    0.545    0.792   26.571   27.167
 xc_rho_set_and_dset_create         178 12.5    0.364    0.481   23.122   25.680
 mp_alltoall_z22v                  2536 17.5   10.017   24.869   10.017   24.869
 xc_pw_divergence                    93 12.5    0.010    0.012   13.544   15.347
 sum_up_and_integrate                93 10.5    0.253    0.296   15.254   15.284
 integrate_v_rspace                  93 11.5    0.007    0.017   15.001   15.133
 x_to_yz                           1084 17.3    3.413    4.022    8.498   15.055
 potential_pw2rs                     93 12.5    0.020    0.025   13.843   13.977
 rs_pw_transfer_RS2PW_200           186 11.6    5.582    6.628   10.927   13.463
 mp_waitany                       13202 13.5    6.364   13.157    6.364   13.157
 xc_exc_calc                         85 11.6    0.044    0.054   12.273   12.277
 yz_to_x                            910 16.1    1.231    1.533    6.130   12.196
 grid_collocate_task_list           178  9.6    5.808    9.029    5.808    9.029
 rs_pw_transfer_PW2RS_200           101 14.1    3.362    3.824    8.528    8.756
 xc_functional_eval                 178 13.5    0.003    0.005    3.430    5.759
 pbe_lda_eval                       178 14.5    3.427    5.756    3.427    5.756
 pw_derive                          825 14.4    4.344    5.468    4.344    5.468
 mp_sum_d                          3018 11.0    2.313    5.467    2.313    5.467
 init_scf_loop                       10  6.6    0.001    0.004    5.107    5.108
 pw_scatter_p                      1270 16.3    3.922    4.870    3.922    4.870
 qs_scf_new_mos                     174  7.6    0.001    0.001    4.207    4.253
 qs_scf_loop_do_ot                  174  8.6    0.002    0.006    4.206    4.252
 dbcsr_multiply_generic            2160 12.2    0.105    0.132    3.889    4.029
 ot_scf_mini                        174  9.6    0.004    0.006    3.862    3.883
 rs_grid_zero                       109 14.7    2.929    3.192    2.929    3.192
 pw_gather_p                       1266 14.7    2.784    3.133    2.784    3.133
 mp_waitall_1                    171176 16.3    1.156    3.000    1.156    3.000
 pw_copy                           1816 13.3    2.520    2.986    2.520    2.986
 rs_pw_transfer_RS2PW_70            178 11.6    1.347    1.581    2.722    2.958
 rs_pw_transfer_PW2RS_70             93 14.5    1.602    1.859    2.278    2.655
 qs_ks_update_qs_env_forces           4  4.8    0.000    0.000    2.605    2.606
 mp_sendrecv_dv                   27768 12.6    1.782    2.484    1.782    2.484
 pw_poisson_solve                   178 10.5    0.488    0.587    2.352    2.364
 mp_isend_dm3                      1722 13.5    0.956    2.001    0.956    2.001
 -------------------------------------------------------------------------------

 The number of warnings for this run is : 2
 
 -------------------------------------------------------------------------------
  **** **** ******  **  PROGRAM ENDED AT                 2024-08-26 10:52:07.168
 ***** ** ***  *** **   PROGRAM RAN ON                                    master
 **    ****   ******    PROGRAM RAN BY                                     rajib
 ***** **    ** ** **   PROGRAM PROCESS ID                                 93872
  **** **  *******  **  PROGRAM STOPPED IN   /home/rajib/DEEPMD/WATER/dpgen_traj
